version 3
run General-0-20211107-14:28:45-14112
attr configname General
attr datetime 20211107-14:28:45
attr datetimef 20211107-142845
attr experiment General
attr inifile omnetpp.ini
attr iterationvars ""
attr iterationvarsd ""
attr iterationvarsf ""
attr measurement ""
attr network MobileTcpNetwork
attr processid 14112
attr repetition 0
attr replication #0
attr resultdir results
attr runnumber 0
attr seedset 0
config image-path ../../../../../../../../../Software/inet4.3/images:../../../../../../../../../Software/Simu5G-1.2.0/images
config network MobileTcpNetwork
config **.numBands 50
config **.ueTxPower 26
config **.eNodeBTxPower 40
config **.targetBler 0.01
config **.blerShift 5
config *.configurator.config "xmldoc(\"./config.xml\")"
config *.numUe 1
config *.ue.macCellId 1
config *.ue.masterId 1
config *.ue.nrMacCellId 1
config *.ue.nrMasterId 1
config *.ue.numApps 1
config *.ue.app[0].typename TcpSessionApp
config *.ue.app[0].active true
config *.ue.app[0].localAddress "\"\""
config *.ue.app[0].localPort -1
config *.ue.app[0].connectAddress "\"server\""
config *.ue.app[0].connectPort 1000
config *.ue.app[0].tOpen exponential(0.1s)
config *.ue.app[0].tSend 0s
config *.ue.app[0].sendBytes 1MiB
config *.ue.app[0].sendScript "\"\""
config *.ue.app[0].tClose 0s
config **.server.numApps 1
config **.server.app[*].typename TcpSinkApp
config **.server.app[0].localAddress "\"\""
config **.server.app[0].localPort 1000
config **.ppp[*].ppp.queue.typename DropTailQueue
config **.ppp[*].ppp.queue.packetCapacity 10

vector 0 MobileTcpNetwork.server.ppp[0].ppp transmissionState:vector ETV
attr interpolationmode sample-hold
attr source transmissionStateChanged
attr title "tx state, vector"
vector 1 MobileTcpNetwork.router.ppp[0].ppp transmissionState:vector ETV
attr interpolationmode sample-hold
attr source transmissionStateChanged
attr title "tx state, vector"
vector 2 MobileTcpNetwork.router.ppp[1].ppp transmissionState:vector ETV
attr interpolationmode sample-hold
attr source transmissionStateChanged
attr title "tx state, vector"
vector 3 MobileTcpNetwork.upf.ppp[0].ppp transmissionState:vector ETV
attr interpolationmode sample-hold
attr source transmissionStateChanged
attr title "tx state, vector"
vector 4 MobileTcpNetwork.upf.pppIf.ppp transmissionState:vector ETV
attr interpolationmode sample-hold
attr source transmissionStateChanged
attr title "tx state, vector"
vector 5 MobileTcpNetwork.gnb.pppIf.ppp transmissionState:vector ETV
attr interpolationmode sample-hold
attr source transmissionStateChanged
attr title "tx state, vector"
vector 6 MobileTcpNetwork.gnb.pppMEHostIf.ppp transmissionState:vector ETV
attr interpolationmode sample-hold
attr source transmissionStateChanged
attr title "tx state, vector"
vector 7 MobileTcpNetwork.ue.cellularNic.phy servingCell:vector ETV
attr source servingCell
attr title "ID of the serving eNodeB for the UE, vector"
attr unit ""
vector 8 MobileTcpNetwork.ue.cellularNic.nrPhy servingCell:vector ETV
attr source servingCell
attr title "ID of the serving eNodeB for the UE, vector"
attr unit ""
vector 9 MobileTcpNetwork.bgCell.bgScheduler bgAvgServedBlocksUl:vector ETV
attr source bgAvgServedBlocksUl
attr title "Average UL served blocks for background cells, vector"
attr unit ""
vector 10 MobileTcpNetwork.bgCell.bgScheduler bgAvgServedBlocksDl:vector ETV
attr source bgAvgServedBlocksDl
attr title "Average DL served blocks for background cells, vector"
attr unit ""
vector 11 MobileTcpNetwork.gnb.cellularNic.mac avgServedBlocksUl:vector ETV
attr source avgServedBlocksUl
attr title "LTE Avg Served Blocks Ul, vector"
attr unit blocks
vector 12 MobileTcpNetwork.gnb.cellularNic.mac avgServedBlocksDl:vector ETV
attr source avgServedBlocksDl
attr title "LTE Avg Served Blocks Dl, vector"
attr unit blocks
vector 13 MobileTcpNetwork.ue.cellularNic.channelModel[0] measuredSinrUl:vector ETV
attr source measuredSinrUl
attr title "SINR measured at feedback computation, UL, vector"
attr unit dB
vector 14 MobileTcpNetwork.ue.cellularNic.channelModel[0] measuredSinrDl:vector ETV
attr source measuredSinrDl
attr title "SINR measured at feedback computation, DL, vector"
attr unit dB
vector 15 MobileTcpNetwork.gnb.cellularNic.mac receivedPacketFromLowerLayer:vector(packetBytes) ETV
attr interpolationmode none
attr source receivedPacketFromLowerLayer
vector 16 MobileTcpNetwork.ue.cellularNic.nrChannelModel[0] measuredSinrUl:vector ETV
attr source measuredSinrUl
attr title "SINR measured at feedback computation, UL, vector"
attr unit dB
vector 17 MobileTcpNetwork.ue.cellularNic.nrChannelModel[0] measuredSinrDl:vector ETV
attr source measuredSinrDl
attr title "SINR measured at feedback computation, DL, vector"
attr unit dB
vector 18 MobileTcpNetwork.ue.tcp.conn-15 tcpRcvQueueBytes:vector ETV
attr interpolationmode sample-hold
vector 19 MobileTcpNetwork.ue.tcp.conn-15 rcvAdv:vector ETV
attr interpolationmode sample-hold
vector 20 MobileTcpNetwork.ue.tcp.conn-15 rcvWnd:vector ETV
attr interpolationmode sample-hold
vector 21 MobileTcpNetwork.ue.tcp.conn-15 sndAck:vector ETV
attr interpolationmode sample-hold
vector 22 MobileTcpNetwork.ue.cellularNic.pdcpRrc receivedPacketFromUpperLayer:vector(packetBytes) ETV
attr interpolationmode none
attr source receivedPacketFromUpperLayer
vector 23 MobileTcpNetwork.ue.cellularNic.pdcpRrc sentPacketToLowerLayer:vector(packetBytes) ETV
attr interpolationmode none
attr source sentPacketToLowerLayer
vector 24 MobileTcpNetwork.ue.cellularNic.nrRlc.um receivedPacketFromUpperLayer:vector(packetBytes) ETV
attr interpolationmode none
attr source receivedPacketFromUpperLayer
vector 25 MobileTcpNetwork.ue.cellularNic.nrMac receivedPacketFromUpperLayer:vector(packetBytes) ETV
attr interpolationmode none
attr source receivedPacketFromUpperLayer
vector 26 MobileTcpNetwork.ue.cellularNic.nrMac sentPacketToLowerLayer:vector(packetBytes) ETV
attr interpolationmode none
attr source sentPacketToLowerLayer
vector 27 MobileTcpNetwork.gnb.cellularNic.mac sentPacketToLowerLayer:vector(packetBytes) ETV
attr interpolationmode none
attr source sentPacketToLowerLayer
vector 28 MobileTcpNetwork.ue.cellularNic.nrMac receivedPacketFromLowerLayer:vector(packetBytes) ETV
attr interpolationmode none
attr source receivedPacketFromLowerLayer
vector 29 MobileTcpNetwork.ue.cellularNic.nrMac sentPacketToUpperLayer:vector(packetBytes) ETV
attr interpolationmode none
attr source sentPacketToUpperLayer
vector 30 MobileTcpNetwork.ue.cellularNic.nrRlc.um rlcPacketLossUl:vector ETV
attr source rlcPacketLossUl
attr title "rlc Packet Loss, vector"
attr unit ""
vector 31 MobileTcpNetwork.ue.cellularNic.nrRlc.um sentPacketToLowerLayer:vector(packetBytes) ETV
attr interpolationmode none
attr source sentPacketToLowerLayer
vector 32 MobileTcpNetwork.ue.cellularNic.nrPhy averageCqiUl:vector ETV
attr source averageCqiUl
attr title "Average Cqi reported in UL, vector"
attr unit cqi
vector 33 MobileTcpNetwork.ue.cellularNic.nrChannelModel[0] rcvdSinrUl:vector ETV
attr source rcvdSinrUl
attr title "SINR measured at packet reception, UL, vector"
attr unit dB
vector 34 MobileTcpNetwork.ue.cellularNic.nrMac macDelayUl:vector ETV
attr source macDelayUl
attr title "Delay at the MAC layer UL, vector"
attr unit s
vector 35 MobileTcpNetwork.gnb.cellularNic.mac sentPacketToUpperLayer:vector(packetBytes) ETV
attr interpolationmode none
attr source sentPacketToUpperLayer
vector 36 MobileTcpNetwork.gnb.cellularNic.rlc.um receivedPacketFromLowerLayer:vector(packetBytes) ETV
attr interpolationmode none
attr source receivedPacketFromLowerLayer
vector 37 MobileTcpNetwork.ue.cellularNic.nrRlc.um rlcPduThroughputUl:vector ETV
attr source rlcPduThroughputUl
attr title "Throughput at the rlc layer UL, vector"
attr unit Bps
vector 38 MobileTcpNetwork.ue.cellularNic.nrRlc.um rlcPduDelayUl:vector ETV
attr source rlcPduDelayUl
attr title "Delay at the rlc layer UL, vector"
attr unit s
vector 39 MobileTcpNetwork.ue.cellularNic.nrRlc.um rlcThroughputUl:vector ETV
attr source rlcThroughputUl
attr title "Throughput at the rlc layer UL, vector"
attr unit Bps
vector 40 MobileTcpNetwork.ue.cellularNic.nrRlc.um rlcPacketLossTotal:vector ETV
attr source rlcPacketLossTotal
attr title "rlc Packet Loss, vector"
attr unit ""
vector 41 MobileTcpNetwork.ue.cellularNic.nrRlc.um rlcDelayUl:vector ETV
attr source rlcDelayUl
attr title "Delay at the rlc layer UL, vector"
attr unit s
vector 42 MobileTcpNetwork.gnb.cellularNic.rlc.um sentPacketToUpperLayer:vector(packetBytes) ETV
attr interpolationmode none
attr source sentPacketToUpperLayer
vector 43 MobileTcpNetwork.ue.cellularNic.nrRlc.um rlcPduPacketLossUl:vector ETV
attr source rlcPduPacketLossUl
attr title "rlc Packet Loss, vector"
attr unit ""
vector 44 MobileTcpNetwork.gnb.cellularNic.pdcpRrc receivedPacketFromLowerLayer:vector(packetBytes) ETV
attr interpolationmode none
attr source receivedPacketFromLowerLayer
vector 45 MobileTcpNetwork.gnb.cellularNic.pdcpRrc sentPacketToUpperLayer:vector(packetBytes) ETV
attr interpolationmode none
attr source sentPacketToUpperLayer
vector 46 MobileTcpNetwork.gnb.udp packetSent:vector(packetBytes) ETV
attr interpolationmode none
attr source packetSent
attr title "packets sent, vector(packetBytes)"
vector 47 MobileTcpNetwork.gnb.pppIf.ppp rcvdPkFromHl:vector(packetBytes) ETV
attr interpolationmode none
attr source packetReceivedFromUpper
attr title "packets received from higher layer, vector(packetBytes)"
vector 48 MobileTcpNetwork.gnb.pppIf.ppp.queue packetPushed:vector(packetBytes) ETV
attr interpolationmode none
attr title "packet pushed, vector(packetBytes)"
vector 49 MobileTcpNetwork.gnb.pppIf.ppp.queue queueLength:vector ETV
attr autoWarmupFilter false
attr interpolationmode sample-hold
attr source "warmup(count(packetPushed) - count(packetPulled) - count(packetRemoved) - count(packetDropped))"
attr title "queue length, vector"
attr type int
vector 50 MobileTcpNetwork.gnb.pppIf.ppp.queue packetPulled:vector(packetBytes) ETV
attr interpolationmode none
attr title "packet pulled, vector(packetBytes)"
vector 51 MobileTcpNetwork.gnb.pppIf.ppp.queue queueingTime:vector ETV
attr interpolationmode none
attr source queueingTime(packetPulled)
attr title "queueing times, vector"
attr unit s
vector 52 MobileTcpNetwork.gnb.pppIf.ppp txPk:vector(packetBytes) ETV
attr interpolationmode none
attr source packetSentToLower
attr title "packets transmitted, vector(packetBytes)"
vector 53 MobileTcpNetwork.upf.ppp[0].ppp rxPkOk:vector(packetBytes) ETV
attr interpolationmode none
attr source rxPkOk
attr title "packets received OK, vector(packetBytes)"
vector 54 MobileTcpNetwork.upf.ppp[0].ppp passedUpPk:vector(packetBytes) ETV
attr interpolationmode none
attr source packetSentToUpper
attr title "packets passed to higher layer, vector(packetBytes)"
vector 55 MobileTcpNetwork.upf.udp packetReceived:vector(packetBytes) ETV
attr interpolationmode none
attr source packetReceived
attr title "packets received, vector(packetBytes)"
vector 56 MobileTcpNetwork.upf.udp passedUpPk:vector(count) ETV
attr interpolationmode none
attr source packetSentToUpper
attr title "packets passed up, vector(count)"
vector 57 MobileTcpNetwork.upf.pppIf.ppp rcvdPkFromHl:vector(packetBytes) ETV
attr interpolationmode none
attr source packetReceivedFromUpper
attr title "packets received from higher layer, vector(packetBytes)"
vector 58 MobileTcpNetwork.upf.pppIf.ppp.queue packetPushed:vector(packetBytes) ETV
attr interpolationmode none
attr title "packet pushed, vector(packetBytes)"
vector 59 MobileTcpNetwork.upf.pppIf.ppp.queue queueLength:vector ETV
attr autoWarmupFilter false
attr interpolationmode sample-hold
attr source "warmup(count(packetPushed) - count(packetPulled) - count(packetRemoved) - count(packetDropped))"
attr title "queue length, vector"
attr type int
vector 60 MobileTcpNetwork.upf.pppIf.ppp.queue packetPulled:vector(packetBytes) ETV
attr interpolationmode none
attr title "packet pulled, vector(packetBytes)"
vector 61 MobileTcpNetwork.upf.pppIf.ppp.queue queueingTime:vector ETV
attr interpolationmode none
attr source queueingTime(packetPulled)
attr title "queueing times, vector"
attr unit s
vector 62 MobileTcpNetwork.upf.pppIf.ppp txPk:vector(packetBytes) ETV
attr interpolationmode none
attr source packetSentToLower
attr title "packets transmitted, vector(packetBytes)"
vector 63 MobileTcpNetwork.router.ppp[1].ppp rxPkOk:vector(packetBytes) ETV
attr interpolationmode none
attr source rxPkOk
attr title "packets received OK, vector(packetBytes)"
vector 64 MobileTcpNetwork.router.ppp[1].ppp passedUpPk:vector(packetBytes) ETV
attr interpolationmode none
attr source packetSentToUpper
attr title "packets passed to higher layer, vector(packetBytes)"
vector 65 MobileTcpNetwork.router.ppp[0].ppp rcvdPkFromHl:vector(packetBytes) ETV
attr interpolationmode none
attr source packetReceivedFromUpper
attr title "packets received from higher layer, vector(packetBytes)"
vector 66 MobileTcpNetwork.router.ppp[0].ppp.queue packetPushed:vector(packetBytes) ETV
attr interpolationmode none
attr title "packet pushed, vector(packetBytes)"
vector 67 MobileTcpNetwork.router.ppp[0].ppp.queue queueLength:vector ETV
attr autoWarmupFilter false
attr interpolationmode sample-hold
attr source "warmup(count(packetPushed) - count(packetPulled) - count(packetRemoved) - count(packetDropped))"
attr title "queue length, vector"
attr type int
vector 68 MobileTcpNetwork.router.ppp[0].ppp.queue packetPulled:vector(packetBytes) ETV
attr interpolationmode none
attr title "packet pulled, vector(packetBytes)"
vector 69 MobileTcpNetwork.router.ppp[0].ppp.queue queueingTime:vector ETV
attr interpolationmode none
attr source queueingTime(packetPulled)
attr title "queueing times, vector"
attr unit s
vector 70 MobileTcpNetwork.router.ppp[0].ppp txPk:vector(packetBytes) ETV
attr interpolationmode none
attr source packetSentToLower
attr title "packets transmitted, vector(packetBytes)"
vector 71 MobileTcpNetwork.server.ppp[0].ppp rxPkOk:vector(packetBytes) ETV
attr interpolationmode none
attr source rxPkOk
attr title "packets received OK, vector(packetBytes)"
vector 72 MobileTcpNetwork.server.ppp[0].ppp passedUpPk:vector(packetBytes) ETV
attr interpolationmode none
attr source packetSentToUpper
attr title "packets passed to higher layer, vector(packetBytes)"
vector 73 MobileTcpNetwork.server.tcp.conn-0 rcvSeq:vector ETV
attr interpolationmode sample-hold
vector 74 MobileTcpNetwork.server.tcp.conn-0 rcvAck:vector ETV
attr interpolationmode sample-hold
vector 75 MobileTcpNetwork.server.tcp.conn-0 tcpRcvPayloadBytes:vector ETV
attr interpolationmode sample-hold
vector 76 MobileTcpNetwork.server.tcp.conn-16 rcvAdv:vector ETV
attr interpolationmode sample-hold
vector 77 MobileTcpNetwork.server.tcp.conn-16 sndWnd:vector ETV
attr interpolationmode sample-hold
vector 78 MobileTcpNetwork.server.tcp.conn-16 tcpRcvQueueBytes:vector ETV
attr interpolationmode sample-hold
vector 79 MobileTcpNetwork.server.tcp.conn-16 rcvWnd:vector ETV
attr interpolationmode sample-hold
vector 80 MobileTcpNetwork.server.tcp.conn-16 sndAck:vector ETV
attr interpolationmode sample-hold
vector 81 MobileTcpNetwork.server.ppp[0].ppp rcvdPkFromHl:vector(packetBytes) ETV
attr interpolationmode none
attr source packetReceivedFromUpper
attr title "packets received from higher layer, vector(packetBytes)"
vector 82 MobileTcpNetwork.server.ppp[0].ppp.queue packetPushed:vector(packetBytes) ETV
attr interpolationmode none
attr title "packet pushed, vector(packetBytes)"
vector 83 MobileTcpNetwork.server.ppp[0].ppp.queue queueLength:vector ETV
attr autoWarmupFilter false
attr interpolationmode sample-hold
attr source "warmup(count(packetPushed) - count(packetPulled) - count(packetRemoved) - count(packetDropped))"
attr title "queue length, vector"
attr type int
vector 84 MobileTcpNetwork.server.ppp[0].ppp.queue packetPulled:vector(packetBytes) ETV
attr interpolationmode none
attr title "packet pulled, vector(packetBytes)"
vector 85 MobileTcpNetwork.server.ppp[0].ppp.queue queueingTime:vector ETV
attr interpolationmode none
attr source queueingTime(packetPulled)
attr title "queueing times, vector"
attr unit s
vector 86 MobileTcpNetwork.server.ppp[0].ppp txPk:vector(packetBytes) ETV
attr interpolationmode none
attr source packetSentToLower
attr title "packets transmitted, vector(packetBytes)"
vector 87 MobileTcpNetwork.router.ppp[0].ppp rxPkOk:vector(packetBytes) ETV
attr interpolationmode none
attr source rxPkOk
attr title "packets received OK, vector(packetBytes)"
vector 88 MobileTcpNetwork.router.ppp[0].ppp passedUpPk:vector(packetBytes) ETV
attr interpolationmode none
attr source packetSentToUpper
attr title "packets passed to higher layer, vector(packetBytes)"
vector 89 MobileTcpNetwork.router.ppp[1].ppp rcvdPkFromHl:vector(packetBytes) ETV
attr interpolationmode none
attr source packetReceivedFromUpper
attr title "packets received from higher layer, vector(packetBytes)"
vector 90 MobileTcpNetwork.router.ppp[1].ppp.queue packetPushed:vector(packetBytes) ETV
attr interpolationmode none
attr title "packet pushed, vector(packetBytes)"
vector 91 MobileTcpNetwork.router.ppp[1].ppp.queue queueLength:vector ETV
attr autoWarmupFilter false
attr interpolationmode sample-hold
attr source "warmup(count(packetPushed) - count(packetPulled) - count(packetRemoved) - count(packetDropped))"
attr title "queue length, vector"
attr type int
vector 92 MobileTcpNetwork.router.ppp[1].ppp.queue packetPulled:vector(packetBytes) ETV
attr interpolationmode none
attr title "packet pulled, vector(packetBytes)"
vector 93 MobileTcpNetwork.router.ppp[1].ppp.queue queueingTime:vector ETV
attr interpolationmode none
attr source queueingTime(packetPulled)
attr title "queueing times, vector"
attr unit s
vector 94 MobileTcpNetwork.router.ppp[1].ppp txPk:vector(packetBytes) ETV
attr interpolationmode none
attr source packetSentToLower
attr title "packets transmitted, vector(packetBytes)"
vector 95 MobileTcpNetwork.upf.pppIf.ppp rxPkOk:vector(packetBytes) ETV
attr interpolationmode none
attr source rxPkOk
attr title "packets received OK, vector(packetBytes)"
vector 96 MobileTcpNetwork.upf.pppIf.ppp passedUpPk:vector(packetBytes) ETV
attr interpolationmode none
attr source packetSentToUpper
attr title "packets passed to higher layer, vector(packetBytes)"
vector 97 MobileTcpNetwork.upf.udp packetSent:vector(packetBytes) ETV
attr interpolationmode none
attr source packetSent
attr title "packets sent, vector(packetBytes)"
vector 98 MobileTcpNetwork.upf.ppp[0].ppp rcvdPkFromHl:vector(packetBytes) ETV
attr interpolationmode none
attr source packetReceivedFromUpper
attr title "packets received from higher layer, vector(packetBytes)"
vector 99 MobileTcpNetwork.upf.ppp[0].ppp.queue packetPushed:vector(packetBytes) ETV
attr interpolationmode none
attr title "packet pushed, vector(packetBytes)"
vector 100 MobileTcpNetwork.upf.ppp[0].ppp.queue queueLength:vector ETV
attr autoWarmupFilter false
attr interpolationmode sample-hold
attr source "warmup(count(packetPushed) - count(packetPulled) - count(packetRemoved) - count(packetDropped))"
attr title "queue length, vector"
attr type int
vector 101 MobileTcpNetwork.upf.ppp[0].ppp.queue packetPulled:vector(packetBytes) ETV
attr interpolationmode none
attr title "packet pulled, vector(packetBytes)"
vector 102 MobileTcpNetwork.upf.ppp[0].ppp.queue queueingTime:vector ETV
attr interpolationmode none
attr source queueingTime(packetPulled)
attr title "queueing times, vector"
attr unit s
vector 103 MobileTcpNetwork.upf.ppp[0].ppp txPk:vector(packetBytes) ETV
attr interpolationmode none
attr source packetSentToLower
attr title "packets transmitted, vector(packetBytes)"
vector 104 MobileTcpNetwork.gnb.pppIf.ppp rxPkOk:vector(packetBytes) ETV
attr interpolationmode none
attr source rxPkOk
attr title "packets received OK, vector(packetBytes)"
vector 105 MobileTcpNetwork.gnb.pppIf.ppp passedUpPk:vector(packetBytes) ETV
attr interpolationmode none
attr source packetSentToUpper
attr title "packets passed to higher layer, vector(packetBytes)"
vector 106 MobileTcpNetwork.gnb.udp packetReceived:vector(packetBytes) ETV
attr interpolationmode none
attr source packetReceived
attr title "packets received, vector(packetBytes)"
vector 107 MobileTcpNetwork.gnb.udp passedUpPk:vector(count) ETV
attr interpolationmode none
attr source packetSentToUpper
attr title "packets passed up, vector(count)"
vector 108 MobileTcpNetwork.gnb.cellularNic.pdcpRrc receivedPacketFromUpperLayer:vector(packetBytes) ETV
attr interpolationmode none
attr source receivedPacketFromUpperLayer
vector 109 MobileTcpNetwork.gnb.cellularNic.pdcpRrc sentPacketToLowerLayer:vector(packetBytes) ETV
attr interpolationmode none
attr source sentPacketToLowerLayer
vector 110 MobileTcpNetwork.gnb.cellularNic.rlc.um receivedPacketFromUpperLayer:vector(packetBytes) ETV
attr interpolationmode none
attr source receivedPacketFromUpperLayer
vector 111 MobileTcpNetwork.gnb.cellularNic.mac receivedPacketFromUpperLayer:vector(packetBytes) ETV
attr interpolationmode none
attr source receivedPacketFromUpperLayer
vector 112 MobileTcpNetwork.gnb.cellularNic.rlc.um rlcPacketLossDl:vector ETV
attr source rlcPacketLossDl
attr title "rlc Packet Loss, vector"
attr unit ""
vector 113 MobileTcpNetwork.gnb.cellularNic.rlc.um sentPacketToLowerLayer:vector(packetBytes) ETV
attr interpolationmode none
attr source sentPacketToLowerLayer
vector 114 MobileTcpNetwork.ue.cellularNic.nrMac harqErrorRate_1st_Ul:vector ETV
attr source harqErrorRate_1st_Ul
attr title "Harq Error Rate Ul, vector"
attr unit ""
vector 115 MobileTcpNetwork.ue.cellularNic.nrMac harqErrorRateUl:vector ETV
attr source harqErrorRateUl
attr title "Harq Error Rate Ul, vector"
attr unit ""
vector 116 MobileTcpNetwork.ue.cellularNic.nrMac harqTxAttemptsUl:vector ETV
attr source harqTxAttemptsUl
attr title "Harq Tx Attempts Ul, vector"
attr unit ""
vector 117 MobileTcpNetwork.ue.cellularNic.nrPhy averageCqiDl:vector ETV
attr source averageCqiDl
attr title "Average Cqi reported in DL, vector"
attr unit cqi
vector 118 MobileTcpNetwork.ue.cellularNic.nrChannelModel[0] rcvdSinrDl:vector ETV
attr source rcvdSinrDl
attr title "SINR measured at packet reception, DL, vector"
attr unit dB
vector 119 MobileTcpNetwork.gnb.cellularNic.mac macDelayDl:vector ETV
attr source macDelayDl
attr title "Delay at the MAC layer UL, vector"
attr unit s
vector 120 MobileTcpNetwork.ue.cellularNic.nrRlc.um receivedPacketFromLowerLayer:vector(packetBytes) ETV
attr interpolationmode none
attr source receivedPacketFromLowerLayer
vector 121 MobileTcpNetwork.ue.cellularNic.nrRlc.um rlcPduThroughputDl:vector ETV
attr source rlcPduThroughputDl
attr title "Throughput at the rlc layer DL, vector"
attr unit Bps
vector 122 MobileTcpNetwork.ue.cellularNic.nrRlc.um rlcPduDelayDl:vector ETV
attr source rlcPduDelayDl
attr title "Delay at the rlc layer UL, vector"
attr unit s
vector 123 MobileTcpNetwork.ue.cellularNic.nrRlc.um rlcThroughputDl:vector ETV
attr source rlcThroughputDl
attr title "Throughput at the rlc layer DL, vector"
attr unit Bps
vector 124 MobileTcpNetwork.ue.cellularNic.nrRlc.um rlcPacketLossDl:vector ETV
attr source rlcPacketLossDl
attr title "rlc Packet Loss, vector"
attr unit ""
vector 125 MobileTcpNetwork.ue.cellularNic.nrRlc.um rlcDelayDl:vector ETV
attr source rlcDelayDl
attr title "Delay at the rlc layer DL, vector"
attr unit s
vector 126 MobileTcpNetwork.ue.cellularNic.nrRlc.um sentPacketToUpperLayer:vector(packetBytes) ETV
attr interpolationmode none
attr source sentPacketToUpperLayer
vector 127 MobileTcpNetwork.ue.cellularNic.nrRlc.um rlcPduPacketLossDl:vector ETV
attr source rlcPduPacketLossDl
attr title "rlc Packet Loss, vector"
attr unit ""
vector 128 MobileTcpNetwork.ue.cellularNic.pdcpRrc receivedPacketFromLowerLayer:vector(packetBytes) ETV
attr interpolationmode none
attr source receivedPacketFromLowerLayer
vector 129 MobileTcpNetwork.ue.cellularNic.pdcpRrc sentPacketToUpperLayer:vector(packetBytes) ETV
attr interpolationmode none
attr source sentPacketToUpperLayer
vector 130 MobileTcpNetwork.ue.tcp.conn-15 rcvSeq:vector ETV
attr interpolationmode sample-hold
vector 131 MobileTcpNetwork.ue.tcp.conn-15 rcvAck:vector ETV
attr interpolationmode sample-hold
vector 132 MobileTcpNetwork.ue.tcp.conn-15 tcpRcvPayloadBytes:vector ETV
attr interpolationmode sample-hold
vector 133 MobileTcpNetwork.ue.tcp.conn-15 sndWnd:vector ETV
attr interpolationmode sample-hold
vector 134 MobileTcpNetwork.ue.app[0] packetSent:vector(packetBytes) ETV
attr interpolationmode none
attr source packetSent
attr title "packets sent, vector(packetBytes)"
vector 135 MobileTcpNetwork.ue.tcp.conn-15 sndNxt:vector ETV
attr interpolationmode sample-hold
vector 136 MobileTcpNetwork.ue.tcp.conn-15 unacked:vector ETV
attr interpolationmode sample-hold
vector 137 MobileTcpNetwork.ue.cellularNic.nrMac harqErrorRate_1st_Dl:vector ETV
attr source harqErrorRate_1st_Dl
attr title "Harq Error Rate Dl, vector"
attr unit ""
vector 138 MobileTcpNetwork.ue.cellularNic.nrMac harqErrorRateDl:vector ETV
attr source harqErrorRateDl
attr title "Harq Error Rate Dl, vector"
attr unit ""
vector 139 MobileTcpNetwork.ue.cellularNic.nrMac harqTxAttemptsDl:vector ETV
attr source harqTxAttemptsDl
attr title "Harq Tx Attempts Dl, vector"
attr unit ""
vector 140 MobileTcpNetwork.server.tcp.conn-16 rcvSeq:vector ETV
attr interpolationmode sample-hold
vector 141 MobileTcpNetwork.server.tcp.conn-16 rcvAck:vector ETV
attr interpolationmode sample-hold
vector 142 MobileTcpNetwork.server.tcp.conn-16 tcpRcvPayloadBytes:vector ETV
attr interpolationmode sample-hold
vector 143 MobileTcpNetwork.server.tcp.conn-16 unacked:vector ETV
attr interpolationmode sample-hold
vector 144 MobileTcpNetwork.server.tcp.conn-16 dupAcks:vector ETV
attr interpolationmode sample-hold
vector 145 MobileTcpNetwork.server.app[0].thread_16 packetReceived:vector(packetBytes) ETV
attr interpolationmode none
attr source packetReceived
attr title "packets received, vector(packetBytes)"
vector 146 MobileTcpNetwork.server.app[0].thread_16 endToEndDelay:vector ETV
attr interpolationmode none
attr source dataAge(packetReceived)
attr title "end-to-end delay, vector"
attr unit s
vector 147 MobileTcpNetwork.server.app[0] packetReceived:vector(packetBytes) ETV
attr checkSignals false
attr interpolationmode none
attr source packetReceived
attr title "packets received, vector(packetBytes)"
vector 148 MobileTcpNetwork.server.app[0] endToEndDelay:vector ETV
attr checkSignals false
attr interpolationmode none
attr source dataAge(packetReceived)
attr title "end-to-end delay, vector"
attr unit s
vector 149 MobileTcpNetwork.ue.tcp.conn-15 rtt:vector ETV
attr interpolationmode sample-hold
vector 150 MobileTcpNetwork.ue.tcp.conn-15 srtt:vector ETV
attr interpolationmode sample-hold
vector 151 MobileTcpNetwork.ue.tcp.conn-15 rttvar:vector ETV
attr interpolationmode sample-hold
vector 152 MobileTcpNetwork.ue.tcp.conn-15 rto:vector ETV
attr interpolationmode sample-hold
vector 153 MobileTcpNetwork.ue.tcp.conn-15 cwnd:vector ETV
attr interpolationmode sample-hold
vector 154 MobileTcpNetwork.ue.tcp.conn-15 ssthresh:vector ETV
attr interpolationmode sample-hold
vector 155 MobileTcpNetwork.ue.tcp.conn-15 dupAcks:vector ETV
attr interpolationmode sample-hold
0	0	0	0
0	155	0.0150003012	1
0	156	0.015000342	0
0	419	0.035001578	1
0	420	0.0350016156	0
0	676	0.055001578	1
0	677	0.0550016156	0
0	704	0.0550020732	1
0	705	0.0550021108	0
0	996	0.075001578	1
0	997	0.0750016156	0
0	1034	0.0750020732	1
0	1035	0.0750021108	0
1	0	0	0
1	149	0.0150002104	1
1	150	0.0150002512	0
1	335	0.029000204	1
1	336	0.0290002416	0
1	412	0.0350010616	1
1	413	0.035001528	0
1	665	0.0550010616	1
1	667	0.055001528	0
1	670	0.0550015568	1
1	698	0.0550020232	0
1	979	0.0750010616	1
1	982	0.075001528	0
1	990	0.0750015568	1
1	1020	0.0750020232	0
1	1028	0.075002052	1
2	0	0	0
2	159	0.015000392	1
2	160	0.0150004328	0
2	423	0.0350016656	1
2	424	0.0350017032	0
2	680	0.0550016656	1
2	681	0.0550017032	0
2	708	0.0550021608	1
2	709	0.0550021984	0
2	1000	0.0750016656	1
2	1001	0.0750017032	0
2	1038	0.0750021608	1
2	1039	0.0750021984	0
3	0	0	0
3	166	0.0150004828	1
3	167	0.0150005524	0
3	430	0.0350017532	1
3	431	0.0350018196	0
3	687	0.0550017532	1
3	688	0.0550018196	0
3	715	0.0550022484	1
3	716	0.0550023148	0
3	1007	0.0750017532	1
3	1008	0.0750018196	0
3	1045	0.0750022484	1
4	0	0	0
4	145	0.0150001196	1
4	146	0.0150001604	0
4	331	0.0290001164	1
4	332	0.029000154	0
4	408	0.0350005452	1
4	409	0.0350010116	0
4	655	0.0550005452	1
4	657	0.0550010116	0
4	662	0.0550010404	1
4	666	0.0550015068	0
4	969	0.0750005452	1
4	971	0.0750010116	0
4	976	0.0750010404	1
4	981	0.0750015068	0
4	987	0.0750015356	1
4	1019	0.075002002	0
4	1025	0.0750020308	1
5	0	0	0
5	136	0.015	1
5	140	0.0150000696	0
5	322	0.029	1
5	326	0.0290000664	0
5	399	0.035	1
5	403	0.0350004952	0
5	645	0.055	1
5	650	0.0550004952	0
5	650	0.0550004952	1
5	656	0.0550009904	0
5	957	0.075	1
5	964	0.0750004952	0
5	964	0.0750004952	1
5	970	0.0750009904	0
5	970	0.0750009904	1
5	980	0.0750014856	0
5	980	0.0750014856	1
5	1018	0.0750019808	0
6	0	0	0
7	0	0	1
8	0	0	1
9	10	0.001	0
9	15	0.002	0
9	24	0.003	0
9	29	0.004	0
9	34	0.005	0
9	41	0.006	0
9	56	0.007	0
9	62	0.008	0
9	74	0.009	0
9	82	0.01	0
9	89	0.011	0
9	102	0.012	0
9	111	0.013	0
9	116	0.014	0
9	125	0.015	0
9	177	0.016	0
9	189	0.017	0
9	198	0.018	0
9	205	0.019	0
9	210	0.02	0
9	243	0.021	0
9	251	0.022	0
9	259	0.023	0
9	269	0.024	0
9	278	0.025	0
9	289	0.026	0
9	300	0.027	0
9	305	0.028	0
9	310	0.029	0
9	345	0.03	0
9	356	0.031	0
9	367	0.032	0
9	378	0.033	0
9	383	0.034	0
9	388	0.035	0
9	443	0.036	0
9	457	0.037	0
9	464	0.038	0
9	473	0.039	0
9	478	0.04	0
9	502	0.041	0
9	512	0.042	0
9	522	0.043	0
9	530	0.044	0
9	541	0.045	0
9	552	0.046	0
9	559	0.047	0
9	566	0.048	0
9	573	0.049	0
9	583	0.05	0
9	596	0.051	0
9	607	0.052	0
9	614	0.053	0
9	621	0.054	0
9	628	0.055	0
9	726	0.056	0
9	742	0.057	0
9	749	0.058	0
9	754	0.059	0
9	761	0.06	0
9	803	0.061	0
9	811	0.062	0
9	823	0.063	0
9	831	0.064	0
9	838	0.065	0
9	851	0.066	0
9	860	0.067	0
9	865	0.068	0
9	874	0.069	0