                                                                
version 3
run General-0-20211107-14:28:45-14112
attr configname General
attr datetime 20211107-14:28:45
attr datetimef 20211107-142845
attr experiment General
attr inifile omnetpp.ini
attr iterationvars ""
attr iterationvarsd ""
attr iterationvarsf ""
attr measurement ""
attr network MobileTcpNetwork
attr processid 14112
attr repetition 0
attr replication #0
attr resultdir results
attr runnumber 0
attr seedset 0
config image-path ../../../../../../../../../Software/inet4.3/images:../../../../../../../../../Software/Simu5G-1.2.0/images
config network MobileTcpNetwork
config **.numBands 50
config **.ueTxPower 26
config **.eNodeBTxPower 40
config **.targetBler 0.01
config **.blerShift 5
config *.configurator.config "xmldoc(\"./config.xml\")"
config *.numUe 1
config *.ue.macCellId 1
config *.ue.masterId 1
config *.ue.nrMacCellId 1
config *.ue.nrMasterId 1
config *.ue.numApps 1
config *.ue.app[0].typename TcpSessionApp
config *.ue.app[0].active true
config *.ue.app[0].localAddress "\"\""
config *.ue.app[0].localPort -1
config *.ue.app[0].connectAddress "\"server\""
config *.ue.app[0].connectPort 1000
config *.ue.app[0].tOpen exponential(0.1s)
config *.ue.app[0].tSend 0s
config *.ue.app[0].sendBytes 1MiB
config *.ue.app[0].sendScript "\"\""
config *.ue.app[0].tClose 0s
config **.server.numApps 1
config **.server.app[*].typename TcpSinkApp
config **.server.app[0].localAddress "\"\""
config **.server.app[0].localPort 1000
config **.ppp[*].ppp.queue.typename DropTailQueue
config **.ppp[*].ppp.queue.packetCapacity 10

vector 0 MobileTcpNetwork.server.ppp[0].ppp transmissionState:vector ETV
attr interpolationmode sample-hold
attr source transmissionStateChanged
attr title "tx state, vector"
vector 1 MobileTcpNetwork.router.ppp[0].ppp transmissionState:vector ETV
attr interpolationmode sample-hold
attr source transmissionStateChanged
attr title "tx state, vector"
vector 2 MobileTcpNetwork.router.ppp[1].ppp transmissionState:vector ETV
attr interpolationmode sample-hold
attr source transmissionStateChanged
attr title "tx state, vector"
vector 3 MobileTcpNetwork.upf.ppp[0].ppp transmissionState:vector ETV
attr interpolationmode sample-hold
attr source transmissionStateChanged
attr title "tx state, vector"
vector 4 MobileTcpNetwork.upf.pppIf.ppp transmissionState:vector ETV
attr interpolationmode sample-hold
attr source transmissionStateChanged
attr title "tx state, vector"
vector 5 MobileTcpNetwork.gnb.pppIf.ppp transmissionState:vector ETV
attr interpolationmode sample-hold
attr source transmissionStateChanged
attr title "tx state, vector"
vector 6 MobileTcpNetwork.gnb.pppMEHostIf.ppp transmissionState:vector ETV
attr interpolationmode sample-hold
attr source transmissionStateChanged
attr title "tx state, vector"
vector 7 MobileTcpNetwork.ue.cellularNic.phy servingCell:vector ETV
attr source servingCell
attr title "ID of the serving eNodeB for the UE, vector"
attr unit ""
vector 8 MobileTcpNetwork.ue.cellularNic.nrPhy servingCell:vector ETV
attr source servingCell
attr title "ID of the serving eNodeB for the UE, vector"
attr unit ""
vector 9 MobileTcpNetwork.bgCell.bgScheduler bgAvgServedBlocksUl:vector ETV
attr source bgAvgServedBlocksUl
attr title "Average UL served blocks for background cells, vector"
attr unit ""
vector 10 MobileTcpNetwork.bgCell.bgScheduler bgAvgServedBlocksDl:vector ETV
attr source bgAvgServedBlocksDl
attr title "Average DL served blocks for background cells, vector"
attr unit ""
vector 11 MobileTcpNetwork.gnb.cellularNic.mac avgServedBlocksUl:vector ETV
attr source avgServedBlocksUl
attr title "LTE Avg Served Blocks Ul, vector"
attr unit blocks
vector 12 MobileTcpNetwork.gnb.cellularNic.mac avgServedBlocksDl:vector ETV
attr source avgServedBlocksDl
attr title "LTE Avg Served Blocks Dl, vector"
attr unit blocks
vector 13 MobileTcpNetwork.ue.cellularNic.channelModel[0] measuredSinrUl:vector ETV
attr source measuredSinrUl
attr title "SINR measured at feedback computation, UL, vector"
attr unit dB
vector 14 MobileTcpNetwork.ue.cellularNic.channelModel[0] measuredSinrDl:vector ETV
attr source measuredSinrDl
attr title "SINR measured at feedback computation, DL, vector"
attr unit dB
vector 15 MobileTcpNetwork.gnb.cellularNic.mac receivedPacketFromLowerLayer:vector(packetBytes) ETV
attr interpolationmode none
attr source receivedPacketFromLowerLayer
vector 16 MobileTcpNetwork.ue.cellularNic.nrChannelModel[0] measuredSinrUl:vector ETV
attr source measuredSinrUl
attr title "SINR measured at feedback computation, UL, vector"
attr unit dB
vector 17 MobileTcpNetwork.ue.cellularNic.nrChannelModel[0] measuredSinrDl:vector ETV
attr source measuredSinrDl
attr title "SINR measured at feedback computation, DL, vector"
attr unit dB
vector 18 MobileTcpNetwork.ue.tcp.conn-15 tcpRcvQueueBytes:vector ETV
attr interpolationmode sample-hold
vector 19 MobileTcpNetwork.ue.tcp.conn-15 rcvAdv:vector ETV
attr interpolationmode sample-hold
vector 20 MobileTcpNetwork.ue.tcp.conn-15 rcvWnd:vector ETV
attr interpolationmode sample-hold
vector 21 MobileTcpNetwork.ue.tcp.conn-15 sndAck:vector ETV
attr interpolationmode sample-hold
vector 22 MobileTcpNetwork.ue.cellularNic.pdcpRrc receivedPacketFromUpperLayer:vector(packetBytes) ETV
attr interpolationmode none
attr source receivedPacketFromUpperLayer
vector 23 MobileTcpNetwork.ue.cellularNic.pdcpRrc sentPacketToLowerLayer:vector(packetBytes) ETV
attr interpolationmode none
attr source sentPacketToLowerLayer
vector 24 MobileTcpNetwork.ue.cellularNic.nrRlc.um receivedPacketFromUpperLayer:vector(packetBytes) ETV
attr interpolationmode none
attr source receivedPacketFromUpperLayer
vector 25 MobileTcpNetwork.ue.cellularNic.nrMac receivedPacketFromUpperLayer:vector(packetBytes) ETV
attr interpolationmode none
attr source receivedPacketFromUpperLayer
vector 26 MobileTcpNetwork.ue.cellularNic.nrMac sentPacketToLowerLayer:vector(packetBytes) ETV
attr interpolationmode none
attr source sentPacketToLowerLayer
vector 27 MobileTcpNetwork.gnb.cellularNic.mac sentPacketToLowerLayer:vector(packetBytes) ETV
attr interpolationmode none
attr source sentPacketToLowerLayer
vector 28 MobileTcpNetwork.ue.cellularNic.nrMac receivedPacketFromLowerLayer:vector(packetBytes) ETV
attr interpolationmode none
attr source receivedPacketFromLowerLayer
vector 29 MobileTcpNetwork.ue.cellularNic.nrMac sentPacketToUpperLayer:vector(packetBytes) ETV
attr interpolationmode none
attr source sentPacketToUpperLayer
vector 30 MobileTcpNetwork.ue.cellularNic.nrRlc.um rlcPacketLossUl:vector ETV
attr source rlcPacketLossUl
attr title "rlc Packet Loss, vector"
attr unit ""
vector 31 MobileTcpNetwork.ue.cellularNic.nrRlc.um sentPacketToLowerLayer:vector(packetBytes) ETV
attr interpolationmode none
attr source sentPacketToLowerLayer
vector 32 MobileTcpNetwork.ue.cellularNic.nrPhy averageCqiUl:vector ETV
attr source averageCqiUl
attr title "Average Cqi reported in UL, vector"
attr unit cqi
vector 33 MobileTcpNetwork.ue.cellularNic.nrChannelModel[0] rcvdSinrUl:vector ETV
attr source rcvdSinrUl
attr title "SINR measured at packet reception, UL, vector"
attr unit dB
vector 34 MobileTcpNetwork.ue.cellularNic.nrMac macDelayUl:vector ETV
attr source macDelayUl
attr title "Delay at the MAC layer UL, vector"
attr unit s
vector 35 MobileTcpNetwork.gnb.cellularNic.mac sentPacketToUpperLayer:vector(packetBytes) ETV
attr interpolationmode none
attr source sentPacketToUpperLayer
vector 36 MobileTcpNetwork.gnb.cellularNic.rlc.um receivedPacketFromLowerLayer:vector(packetBytes) ETV
attr interpolationmode none
attr source receivedPacketFromLowerLayer
vector 37 MobileTcpNetwork.ue.cellularNic.nrRlc.um rlcPduThroughputUl:vector ETV
attr source rlcPduThroughputUl
attr title "Throughput at the rlc layer UL, vector"
attr unit Bps
vector 38 MobileTcpNetwork.ue.cellularNic.nrRlc.um rlcPduDelayUl:vector ETV
attr source rlcPduDelayUl
attr title "Delay at the rlc layer UL, vector"
attr unit s
vector 39 MobileTcpNetwork.ue.cellularNic.nrRlc.um rlcThroughputUl:vector ETV
attr source rlcThroughputUl
attr title "Throughput at the rlc layer UL, vector"
attr unit Bps
vector 40 MobileTcpNetwork.ue.cellularNic.nrRlc.um rlcPacketLossTotal:vector ETV
attr source rlcPacketLossTotal
attr title "rlc Packet Loss, vector"
attr unit ""
vector 41 MobileTcpNetwork.ue.cellularNic.nrRlc.um rlcDelayUl:vector ETV
attr source rlcDelayUl
attr title "Delay at the rlc layer UL, vector"
attr unit s
vector 42 MobileTcpNetwork.gnb.cellularNic.rlc.um sentPacketToUpperLayer:vector(packetBytes) ETV
attr interpolationmode none
attr source sentPacketToUpperLayer
vector 43 MobileTcpNetwork.ue.cellularNic.nrRlc.um rlcPduPacketLossUl:vector ETV
attr source rlcPduPacketLossUl
attr title "rlc Packet Loss, vector"
attr unit ""
vector 44 MobileTcpNetwork.gnb.cellularNic.pdcpRrc receivedPacketFromLowerLayer:vector(packetBytes) ETV
attr interpolationmode none
attr source receivedPacketFromLowerLayer
vector 45 MobileTcpNetwork.gnb.cellularNic.pdcpRrc sentPacketToUpperLayer:vector(packetBytes) ETV
attr interpolationmode none
attr source sentPacketToUpperLayer
vector 46 MobileTcpNetwork.gnb.udp packetSent:vector(packetBytes) ETV
attr interpolationmode none
attr source packetSent
attr title "packets sent, vector(packetBytes)"
vector 47 MobileTcpNetwork.gnb.pppIf.ppp rcvdPkFromHl:vector(packetBytes) ETV
attr interpolationmode none
attr source packetReceivedFromUpper
attr title "packets received from higher layer, vector(packetBytes)"
vector 48 MobileTcpNetwork.gnb.pppIf.ppp.queue packetPushed:vector(packetBytes) ETV
attr interpolationmode none
attr title "packet pushed, vector(packetBytes)"
vector 49 MobileTcpNetwork.gnb.pppIf.ppp.queue queueLength:vector ETV
attr autoWarmupFilter false
attr interpolationmode sample-hold
attr source "warmup(count(packetPushed) - count(packetPulled) - count(packetRemoved) - count(packetDropped))"
attr title "queue length, vector"
attr type int
vector 50 MobileTcpNetwork.gnb.pppIf.ppp.queue packetPulled:vector(packetBytes) ETV
attr interpolationmode none
attr title "packet pulled, vector(packetBytes)"
vector 51 MobileTcpNetwork.gnb.pppIf.ppp.queue queueingTime:vector ETV
attr interpolationmode none
attr source queueingTime(packetPulled)
attr title "queueing times, vector"
attr unit s
vector 52 MobileTcpNetwork.gnb.pppIf.ppp txPk:vector(packetBytes) ETV
attr interpolationmode none
attr source packetSentToLower
attr title "packets transmitted, vector(packetBytes)"
vector 53 MobileTcpNetwork.upf.ppp[0].ppp rxPkOk:vector(packetBytes) ETV
attr interpolationmode none
attr source rxPkOk
attr title "packets received OK, vector(packetBytes)"
vector 54 MobileTcpNetwork.upf.ppp[0].ppp passedUpPk:vector(packetBytes) ETV
attr interpolationmode none
attr source packetSentToUpper
attr title "packets passed to higher layer, vector(packetBytes)"
vector 55 MobileTcpNetwork.upf.udp packetReceived:vector(packetBytes) ETV
attr interpolationmode none
attr source packetReceived
attr title "packets received, vector(packetBytes)"
vector 56 MobileTcpNetwork.upf.udp passedUpPk:vector(count) ETV
attr interpolationmode none
attr source packetSentToUpper
attr title "packets passed up, vector(count)"
vector 57 MobileTcpNetwork.upf.pppIf.ppp rcvdPkFromHl:vector(packetBytes) ETV
attr interpolationmode none
attr source packetReceivedFromUpper
attr title "packets received from higher layer, vector(packetBytes)"
vector 58 MobileTcpNetwork.upf.pppIf.ppp.queue packetPushed:vector(packetBytes) ETV
attr interpolationmode none
attr title "packet pushed, vector(packetBytes)"
vector 59 MobileTcpNetwork.upf.pppIf.ppp.queue queueLength:vector ETV
attr autoWarmupFilter false
attr interpolationmode sample-hold
attr source "warmup(count(packetPushed) - count(packetPulled) - count(packetRemoved) - count(packetDropped))"
attr title "queue length, vector"
attr type int
vector 60 MobileTcpNetwork.upf.pppIf.ppp.queue packetPulled:vector(packetBytes) ETV
attr interpolationmode none
attr title "packet pulled, vector(packetBytes)"
vector 61 MobileTcpNetwork.upf.pppIf.ppp.queue queueingTime:vector ETV
attr interpolationmode none
attr source queueingTime(packetPulled)
attr title "queueing times, vector"
attr unit s
vector 62 MobileTcpNetwork.upf.pppIf.ppp txPk:vector(packetBytes) ETV
attr interpolationmode none
attr source packetSentToLower
attr title "packets transmitted, vector(packetBytes)"
vector 63 MobileTcpNetwork.router.ppp[1].ppp rxPkOk:vector(packetBytes) ETV
attr interpolationmode none
attr source rxPkOk
attr title "packets received OK, vector(packetBytes)"
vector 64 MobileTcpNetwork.router.ppp[1].ppp passedUpPk:vector(packetBytes) ETV
attr interpolationmode none
attr source packetSentToUpper
attr title "packets passed to higher layer, vector(packetBytes)"
vector 65 MobileTcpNetwork.router.ppp[0].ppp rcvdPkFromHl:vector(packetBytes) ETV
attr interpolationmode none
attr source packetReceivedFromUpper
attr title "packets received from higher layer, vector(packetBytes)"
vector 66 MobileTcpNetwork.router.ppp[0].ppp.queue packetPushed:vector(packetBytes) ETV
attr interpolationmode none
attr title "packet pushed, vector(packetBytes)"
vector 67 MobileTcpNetwork.router.ppp[0].ppp.queue queueLength:vector ETV
attr autoWarmupFilter false
attr interpolationmode sample-hold
attr source "warmup(count(packetPushed) - count(packetPulled) - count(packetRemoved) - count(packetDropped))"
attr title "queue length, vector"
attr type int
vector 68 MobileTcpNetwork.router.ppp[0].ppp.queue packetPulled:vector(packetBytes) ETV
attr interpolationmode none
attr title "packet pulled, vector(packetBytes)"
vector 69 MobileTcpNetwork.router.ppp[0].ppp.queue queueingTime:vector ETV
attr interpolationmode none
attr source queueingTime(packetPulled)
attr title "queueing times, vector"
attr unit s
vector 70 MobileTcpNetwork.router.ppp[0].ppp txPk:vector(packetBytes) ETV
attr interpolationmode none
attr source packetSentToLower
attr title "packets transmitted, vector(packetBytes)"
vector 71 MobileTcpNetwork.server.ppp[0].ppp rxPkOk:vector(packetBytes) ETV
attr interpolationmode none
attr source rxPkOk
attr title "packets received OK, vector(packetBytes)"
vector 72 MobileTcpNetwork.server.ppp[0].ppp passedUpPk:vector(packetBytes) ETV
attr interpolationmode none
attr source packetSentToUpper
attr title "packets passed to higher layer, vector(packetBytes)"
vector 73 MobileTcpNetwork.server.tcp.conn-0 rcvSeq:vector ETV
attr interpolationmode sample-hold
vector 74 MobileTcpNetwork.server.tcp.conn-0 rcvAck:vector ETV
attr interpolationmode sample-hold
vector 75 MobileTcpNetwork.server.tcp.conn-0 tcpRcvPayloadBytes:vector ETV
attr interpolationmode sample-hold
vector 76 MobileTcpNetwork.server.tcp.conn-16 rcvAdv:vector ETV
attr interpolationmode sample-hold
vector 77 MobileTcpNetwork.server.tcp.conn-16 sndWnd:vector ETV
attr interpolationmode sample-hold
vector 78 MobileTcpNetwork.server.tcp.conn-16 tcpRcvQueueBytes:vector ETV
attr interpolationmode sample-hold
vector 79 MobileTcpNetwork.server.tcp.conn-16 rcvWnd:vector ETV
attr interpolationmode sample-hold
vector 80 MobileTcpNetwork.server.tcp.conn-16 sndAck:vector ETV
attr interpolationmode sample-hold
vector 81 MobileTcpNetwork.server.ppp[0].ppp rcvdPkFromHl:vector(packetBytes) ETV
attr interpolationmode none
attr source packetReceivedFromUpper
attr title "packets received from higher layer, vector(packetBytes)"
vector 82 MobileTcpNetwork.server.ppp[0].ppp.queue packetPushed:vector(packetBytes) ETV
attr interpolationmode none
attr title "packet pushed, vector(packetBytes)"
vector 83 MobileTcpNetwork.server.ppp[0].ppp.queue queueLength:vector ETV
attr autoWarmupFilter false
attr interpolationmode sample-hold
attr source "warmup(count(packetPushed) - count(packetPulled) - count(packetRemoved) - count(packetDropped))"
attr title "queue length, vector"
attr type int
vector 84 MobileTcpNetwork.server.ppp[0].ppp.queue packetPulled:vector(packetBytes) ETV
attr interpolationmode none
attr title "packet pulled, vector(packetBytes)"
vector 85 MobileTcpNetwork.server.ppp[0].ppp.queue queueingTime:vector ETV
attr interpolationmode none
attr source queueingTime(packetPulled)
attr title "queueing times, vector"
attr unit s
vector 86 MobileTcpNetwork.server.ppp[0].ppp txPk:vector(packetBytes) ETV
attr interpolationmode none
attr source packetSentToLower
attr title "packets transmitted, vector(packetBytes)"
vector 87 MobileTcpNetwork.router.ppp[0].ppp rxPkOk:vector(packetBytes) ETV
attr interpolationmode none
attr source rxPkOk
attr title "packets received OK, vector(packetBytes)"
vector 88 MobileTcpNetwork.router.ppp[0].ppp passedUpPk:vector(packetBytes) ETV
attr interpolationmode none
attr source packetSentToUpper
attr title "packets passed to higher layer, vector(packetBytes)"
vector 89 MobileTcpNetwork.router.ppp[1].ppp rcvdPkFromHl:vector(packetBytes) ETV
attr interpolationmode none
attr source packetReceivedFromUpper
attr title "packets received from higher layer, vector(packetBytes)"
vector 90 MobileTcpNetwork.router.ppp[1].ppp.queue packetPushed:vector(packetBytes) ETV
attr interpolationmode none
attr title "packet pushed, vector(packetBytes)"
vector 91 MobileTcpNetwork.router.ppp[1].ppp.queue queueLength:vector ETV
attr autoWarmupFilter false
attr interpolationmode sample-hold
attr source "warmup(count(packetPushed) - count(packetPulled) - count(packetRemoved) - count(packetDropped))"
attr title "queue length, vector"
attr type int
vector 92 MobileTcpNetwork.router.ppp[1].ppp.queue packetPulled:vector(packetBytes) ETV
attr interpolationmode none
attr title "packet pulled, vector(packetBytes)"
vector 93 MobileTcpNetwork.router.ppp[1].ppp.queue queueingTime:vector ETV
attr interpolationmode none
attr source queueingTime(packetPulled)
attr title "queueing times, vector"
attr unit s
vector 94 MobileTcpNetwork.router.ppp[1].ppp txPk:vector(packetBytes) ETV
attr interpolationmode none
attr source packetSentToLower
attr title "packets transmitted, vector(packetBytes)"
vector 95 MobileTcpNetwork.upf.pppIf.ppp rxPkOk:vector(packetBytes) ETV
attr interpolationmode none
attr source rxPkOk
attr title "packets received OK, vector(packetBytes)"
vector 96 MobileTcpNetwork.upf.pppIf.ppp passedUpPk:vector(packetBytes) ETV
attr interpolationmode none
attr source packetSentToUpper
attr title "packets passed to higher layer, vector(packetBytes)"
vector 97 MobileTcpNetwork.upf.udp packetSent:vector(packetBytes) ETV
attr interpolationmode none
attr source packetSent
attr title "packets sent, vector(packetBytes)"
vector 98 MobileTcpNetwork.upf.ppp[0].ppp rcvdPkFromHl:vector(packetBytes) ETV
attr interpolationmode none
attr source packetReceivedFromUpper
attr title "packets received from higher layer, vector(packetBytes)"
vector 99 MobileTcpNetwork.upf.ppp[0].ppp.queue packetPushed:vector(packetBytes) ETV
attr interpolationmode none
attr title "packet pushed, vector(packetBytes)"
vector 100 MobileTcpNetwork.upf.ppp[0].ppp.queue queueLength:vector ETV
attr autoWarmupFilter false
attr interpolationmode sample-hold
attr source "warmup(count(packetPushed) - count(packetPulled) - count(packetRemoved) - count(packetDropped))"
attr title "queue length, vector"
attr type int
vector 101 MobileTcpNetwork.upf.ppp[0].ppp.queue packetPulled:vector(packetBytes) ETV
attr interpolationmode none
attr title "packet pulled, vector(packetBytes)"
vector 102 MobileTcpNetwork.upf.ppp[0].ppp.queue queueingTime:vector ETV
attr interpolationmode none
attr source queueingTime(packetPulled)
attr title "queueing times, vector"
attr unit s
vector 103 MobileTcpNetwork.upf.ppp[0].ppp txPk:vector(packetBytes) ETV
attr interpolationmode none
attr source packetSentToLower
attr title "packets transmitted, vector(packetBytes)"
vector 104 MobileTcpNetwork.gnb.pppIf.ppp rxPkOk:vector(packetBytes) ETV
attr interpolationmode none
attr source rxPkOk
attr title "packets received OK, vector(packetBytes)"
vector 105 MobileTcpNetwork.gnb.pppIf.ppp passedUpPk:vector(packetBytes) ETV
attr interpolationmode none
attr source packetSentToUpper
attr title "packets passed to higher layer, vector(packetBytes)"
vector 106 MobileTcpNetwork.gnb.udp packetReceived:vector(packetBytes) ETV
attr interpolationmode none
attr source packetReceived
attr title "packets received, vector(packetBytes)"
vector 107 MobileTcpNetwork.gnb.udp passedUpPk:vector(count) ETV
attr interpolationmode none
attr source packetSentToUpper
attr title "packets passed up, vector(count)"
vector 108 MobileTcpNetwork.gnb.cellularNic.pdcpRrc receivedPacketFromUpperLayer:vector(packetBytes) ETV
attr interpolationmode none
attr source receivedPacketFromUpperLayer
vector 109 MobileTcpNetwork.gnb.cellularNic.pdcpRrc sentPacketToLowerLayer:vector(packetBytes) ETV
attr interpolationmode none
attr source sentPacketToLowerLayer
vector 110 MobileTcpNetwork.gnb.cellularNic.rlc.um receivedPacketFromUpperLayer:vector(packetBytes) ETV
attr interpolationmode none
attr source receivedPacketFromUpperLayer
vector 111 MobileTcpNetwork.gnb.cellularNic.mac receivedPacketFromUpperLayer:vector(packetBytes) ETV
attr interpolationmode none
attr source receivedPacketFromUpperLayer
vector 112 MobileTcpNetwork.gnb.cellularNic.rlc.um rlcPacketLossDl:vector ETV
attr source rlcPacketLossDl
attr title "rlc Packet Loss, vector"
attr unit ""
vector 113 MobileTcpNetwork.gnb.cellularNic.rlc.um sentPacketToLowerLayer:vector(packetBytes) ETV
attr interpolationmode none
attr source sentPacketToLowerLayer
vector 114 MobileTcpNetwork.ue.cellularNic.nrMac harqErrorRate_1st_Ul:vector ETV
attr source harqErrorRate_1st_Ul
attr title "Harq Error Rate Ul, vector"
attr unit ""
vector 115 MobileTcpNetwork.ue.cellularNic.nrMac harqErrorRateUl:vector ETV
attr source harqErrorRateUl
attr title "Harq Error Rate Ul, vector"
attr unit ""
vector 116 MobileTcpNetwork.ue.cellularNic.nrMac harqTxAttemptsUl:vector ETV
attr source harqTxAttemptsUl
attr title "Harq Tx Attempts Ul, vector"
attr unit ""
vector 117 MobileTcpNetwork.ue.cellularNic.nrPhy averageCqiDl:vector ETV
attr source averageCqiDl
attr title "Average Cqi reported in DL, vector"
attr unit cqi
vector 118 MobileTcpNetwork.ue.cellularNic.nrChannelModel[0] rcvdSinrDl:vector ETV
attr source rcvdSinrDl
attr title "SINR measured at packet reception, DL, vector"
attr unit dB
vector 119 MobileTcpNetwork.gnb.cellularNic.mac macDelayDl:vector ETV
attr source macDelayDl
attr title "Delay at the MAC layer UL, vector"
attr unit s
vector 120 MobileTcpNetwork.ue.cellularNic.nrRlc.um receivedPacketFromLowerLayer:vector(packetBytes) ETV
attr interpolationmode none
attr source receivedPacketFromLowerLayer
vector 121 MobileTcpNetwork.ue.cellularNic.nrRlc.um rlcPduThroughputDl:vector ETV
attr source rlcPduThroughputDl
attr title "Throughput at the rlc layer DL, vector"
attr unit Bps
vector 122 MobileTcpNetwork.ue.cellularNic.nrRlc.um rlcPduDelayDl:vector ETV
attr source rlcPduDelayDl
attr title "Delay at the rlc layer UL, vector"
attr unit s
vector 123 MobileTcpNetwork.ue.cellularNic.nrRlc.um rlcThroughputDl:vector ETV
attr source rlcThroughputDl
attr title "Throughput at the rlc layer DL, vector"
attr unit Bps
vector 124 MobileTcpNetwork.ue.cellularNic.nrRlc.um rlcPacketLossDl:vector ETV
attr source rlcPacketLossDl
attr title "rlc Packet Loss, vector"
attr unit ""
vector 125 MobileTcpNetwork.ue.cellularNic.nrRlc.um rlcDelayDl:vector ETV
attr source rlcDelayDl
attr title "Delay at the rlc layer DL, vector"
attr unit s
vector 126 MobileTcpNetwork.ue.cellularNic.nrRlc.um sentPacketToUpperLayer:vector(packetBytes) ETV
attr interpolationmode none
attr source sentPacketToUpperLayer
vector 127 MobileTcpNetwork.ue.cellularNic.nrRlc.um rlcPduPacketLossDl:vector ETV
attr source rlcPduPacketLossDl
attr title "rlc Packet Loss, vector"
attr unit ""
vector 128 MobileTcpNetwork.ue.cellularNic.pdcpRrc receivedPacketFromLowerLayer:vector(packetBytes) ETV
attr interpolationmode none
attr source receivedPacketFromLowerLayer
vector 129 MobileTcpNetwork.ue.cellularNic.pdcpRrc sentPacketToUpperLayer:vector(packetBytes) ETV
attr interpolationmode none
attr source sentPacketToUpperLayer
vector 130 MobileTcpNetwork.ue.tcp.conn-15 rcvSeq:vector ETV
attr interpolationmode sample-hold
vector 131 MobileTcpNetwork.ue.tcp.conn-15 rcvAck:vector ETV
attr interpolationmode sample-hold
vector 132 MobileTcpNetwork.ue.tcp.conn-15 tcpRcvPayloadBytes:vector ETV
attr interpolationmode sample-hold
vector 133 MobileTcpNetwork.ue.tcp.conn-15 sndWnd:vector ETV
attr interpolationmode sample-hold
vector 134 MobileTcpNetwork.ue.app[0] packetSent:vector(packetBytes) ETV
attr interpolationmode none
attr source packetSent
attr title "packets sent, vector(packetBytes)"
vector 135 MobileTcpNetwork.ue.tcp.conn-15 sndNxt:vector ETV
attr interpolationmode sample-hold
vector 136 MobileTcpNetwork.ue.tcp.conn-15 unacked:vector ETV
attr interpolationmode sample-hold
vector 137 MobileTcpNetwork.ue.cellularNic.nrMac harqErrorRate_1st_Dl:vector ETV
attr source harqErrorRate_1st_Dl
attr title "Harq Error Rate Dl, vector"
attr unit ""
vector 138 MobileTcpNetwork.ue.cellularNic.nrMac harqErrorRateDl:vector ETV
attr source harqErrorRateDl
attr title "Harq Error Rate Dl, vector"
attr unit ""
vector 139 MobileTcpNetwork.ue.cellularNic.nrMac harqTxAttemptsDl:vector ETV
attr source harqTxAttemptsDl
attr title "Harq Tx Attempts Dl, vector"
attr unit ""
vector 140 MobileTcpNetwork.server.tcp.conn-16 rcvSeq:vector ETV
attr interpolationmode sample-hold
vector 141 MobileTcpNetwork.server.tcp.conn-16 rcvAck:vector ETV
attr interpolationmode sample-hold
vector 142 MobileTcpNetwork.server.tcp.conn-16 tcpRcvPayloadBytes:vector ETV
attr interpolationmode sample-hold
vector 143 MobileTcpNetwork.server.tcp.conn-16 unacked:vector ETV
attr interpolationmode sample-hold
vector 144 MobileTcpNetwork.server.tcp.conn-16 dupAcks:vector ETV
attr interpolationmode sample-hold
vector 145 MobileTcpNetwork.server.app[0].thread_16 packetReceived:vector(packetBytes) ETV
attr interpolationmode none
attr source packetReceived
attr title "packets received, vector(packetBytes)"
vector 146 MobileTcpNetwork.server.app[0].thread_16 endToEndDelay:vector ETV
attr interpolationmode none
attr source dataAge(packetReceived)
attr title "end-to-end delay, vector"
attr unit s
vector 147 MobileTcpNetwork.server.app[0] packetReceived:vector(packetBytes) ETV
attr checkSignals false
attr interpolationmode none
attr source packetReceived
attr title "packets received, vector(packetBytes)"
vector 148 MobileTcpNetwork.server.app[0] endToEndDelay:vector ETV
attr checkSignals false
attr interpolationmode none
attr source dataAge(packetReceived)
attr title "end-to-end delay, vector"
attr unit s
vector 149 MobileTcpNetwork.ue.tcp.conn-15 rtt:vector ETV
attr interpolationmode sample-hold
vector 150 MobileTcpNetwork.ue.tcp.conn-15 srtt:vector ETV
attr interpolationmode sample-hold
vector 151 MobileTcpNetwork.ue.tcp.conn-15 rttvar:vector ETV
attr interpolationmode sample-hold
vector 152 MobileTcpNetwork.ue.tcp.conn-15 rto:vector ETV
attr interpolationmode sample-hold
vector 153 MobileTcpNetwork.ue.tcp.conn-15 cwnd:vector ETV
attr interpolationmode sample-hold
vector 154 MobileTcpNetwork.ue.tcp.conn-15 ssthresh:vector ETV
attr interpolationmode sample-hold
vector 155 MobileTcpNetwork.ue.tcp.conn-15 dupAcks:vector ETV
attr interpolationmode sample-hold
0	27222 258 0 1035 0 0.0750021108 13 0 1 6 6
1	27480 320 0 1028 0 0.075002052 16 0 1 8 8
2	27800 263 0 1039 0 0.0750021984 13 0 1 6 6
3	28063 242 0 1045 0 0.0750022484 12 0 1 6 6
4	28305 365 0 1025 0 0.0750020308 18 0 1 9 9
5	28670 352 0 1018 0 0.0750019808 19 0 1 9 9
6	29022 8 0 0 0 0 1 0 0 0 0
7	29030 8 0 0 0 0 1 1 1 1 1
8	29038 8 0 0 0 0 1 1 1 1 1
9	29046 1032 10 928 0.001 0.075 75 0 0 0 0
10	30078 1107 10 928 0.001 0.075 75 0 0 0 0
11	31185 1108 11 929 0.001 0.075 75 0 16 32 340
12	32293 1107 11 929 0.001 0.075 75 0 1 3 3
13	33400 373 20 924 0.002 0.074 13 28.616325612614 28.616325612614 372.01223296398 10645.623190373
14	33773 373 20 924 0.002 0.074 13 40.761978697951 40.761978697951 529.90572307336 21600.005795839
15	34146 606 21 927 0.002 0.074 40 1 2175 4186 6070368
16	34752 373 22 926 0.002 0.074 13 27.490539226818 27.490539226818 357.37700994864 9824.486710756
17	35125 373 22 926 0.002 0.074 13 38.798124833517 38.798124833517 504.37562283573 19568.828377764
18	35498 135 47 775 0.006035252935 0.06 9 0 0 0 0
19	35633 188 47 775 0.006035252935 0.06 10 7504 11255 108799 1196385241
20	35821 162 47 775 0.006035252935 0.06 9 7504 7504 67536 506790144
21	35983 159 47 775 0.006035252935 0.06 9 0 3751 30008 112560008
22	36142 151 50 787 0.006035252935 0.06 9 40 576 4116 2325968
23	36293 151 50 787 0.006035252935 0.06 9 41 577 4125 2334209
24	36444 151 51 791 0.006035252935 0.06 9 41 577 4125 2334209
25	36595 270 53 899 0.006035252935 0.071 16 43 2173 8282 8404496
26	36865 220 59 901 0.007 0.071 14 1 2175 4160 6070342
27	37085 316 72 929 0.008 0.075 21 1 86 198 11840
28	37401 294 81 891 0.009 0.07 20 1 86 197 11839
29	37695 149 92 895 0.011 0.071 10 1 84 181 11121
30	37844 239 94 932 0.011 0.075 16 0 0 0 0
31	38083 119 94 897 0.011 0.071 7 47 2173 4139 6053751
32	38202 111 99 902 0.011 0.071 7 14 14 98 1372
33	38313 203 107 910 0.012 0.072 7 27.401835168677 33.196440836657 216.65514375617 6753.3280193292
34	38516 133 126 929 0.015 0.075 7 0.004 0.004 0.028 0.000112
35	38649 165 126 929 0.015 0.075 10 1 2173 4142 6053754
36	38814 120 129 932 0.015 0.075 7 47 2173 4139 6053751
37	38934 105 129 932 0.015 0.075 7 0 0 0 0
38	39039 133 129 932 0.015 0.075 7 0.004 0.004 0.028 0.000112
39	39172 230 129 932 0.015 0.075 9 2965.5172413793 55000 254330.19256605 9827348261.1077
40	39402 191 129 932 0.015 0.075 13 0 0 0 0
41	39593 180 129 932 0.015 0.075 9 0.008964747065 0.015 0.122964747065 0.0017363666899394
42	39773 151 129 932 0.015 0.075 9 41 577 4125 2334209
43	39924 105 129 932 0.015 0.075 7 0 0 0 0
44	40029 151 130 936 0.015 0.075 9 41 577 4125 2334209
45	40180 151 130 936 0.015 0.075 9 40 576 4116 2325968
46	40331 151 134 952 0.015 0.075 9 56 592 4260 2459984