<?xml version="1.0" encoding="UTF-8"?>

<!-- generated on 2021-05-08 12:23:09 by Eclipse SUMO sumo Version 1.9.1
<configuration xmlns:xsi="http://www.w3.org/2001/XMLSchema-instance" xsi:noNamespaceSchemaLocation="http://sumo.dlr.de/xsd/sumoConfiguration.xsd">

    <input>
        <net-file value="test_net/osm.net.xml"/>
        <route-files value="test_net/osm.passenger.trips.xml"/>
        <additional-files value="test_net/osm.poly.xml"/>
    </input>

    <output>
        <netstate-dump value="test_net/./dump.txt"/>
        <fcd-output value="./fcd_dump.xml"/>
    </output>

    <processing>
        <ignore-route-errors value="true"/>
    </processing>

    <routing>
        <device.rerouting.adaptation-steps value="18"/>
        <device.rerouting.adaptation-interval value="10"/>
    </routing>

    <report>
        <verbose value="true"/>
        <duration-log.statistics value="true"/>
        <no-step-log value="true"/>
    </report>

    <gui_only>
        <gui-settings-file value="test_net/osm.view.xml"/>
    </gui_only>

</configuration>
-->

<fcd-export xmlns:xsi="http://www.w3.org/2001/XMLSchema-instance" xsi:noNamespaceSchemaLocation="http://sumo.dlr.de/xsd/fcd_file.xsd">
    <timestep time="0.00">
        <vehicle id="veh0" x="7820.19" y="9559.51" angle="269.54" type="veh_passenger" speed="0.00" pos="5.10" lane="303046107#2_0" slope="0.00"/>
    </timestep>
    <timestep time="1.00">
        <vehicle id="veh0" x="7818.81" y="9559.50" angle="269.54" type="veh_passenger" speed="1.38" pos="6.48" lane="303046107#2_0" slope="0.00"/>
    </timestep>
    <timestep time="2.00">
        <vehicle id="veh0" x="7816.11" y="9559.48" angle="269.54" type="veh_passenger" speed="2.70" pos="9.18" lane="303046107#2_0" slope="0.00"/>
    </timestep>
    <timestep time="3.00">
        <vehicle id="veh0" x="7811.97" y="9559.28" angle="267.62" type="veh_passenger" speed="4.14" pos="2.12" lane=":3073416594_0_0" slope="0.00"/>
    </timestep>
    <timestep time="4.00">
        <vehicle id="veh0" x="7806.04" y="9558.21" angle="258.77" type="veh_passenger" speed="6.03" pos="8.16" lane=":3073416594_0_0" slope="0.00"/>
        <vehicle id="veh1" x="6381.08" y="9183.59" angle="19.41" type="veh_passenger" speed="26.07" pos="5.10" lane="127568952#0_0" slope="0.00"/>
    </timestep>
    <timestep time="5.00">
        <vehicle id="veh0" x="7797.68" y="9558.25" angle="272.46" type="veh_passenger" speed="8.37" pos="4.81" lane="23491047#3_0" slope="0.00"/>
        <vehicle id="veh1" x="6389.55" y="9207.62" angle="19.41" type="veh_passenger" speed="25.48" pos="30.58" lane="127568952#0_0" slope="0.00"/>
    </timestep>
    <timestep time="6.00">
        <vehicle id="veh0" x="7787.99" y="9558.66" angle="272.20" type="veh_passenger" speed="9.70" pos="1.07" lane=":285930573_0_0" slope="0.00"/>
        <vehicle id="veh1" x="6397.96" y="9231.46" angle="19.41" type="veh_passenger" speed="25.29" pos="55.87" lane="127568952#0_0" slope="0.00"/>
    </timestep>
    <timestep time="7.00">
        <vehicle id="veh0" x="7779.10" y="9558.76" angle="270.68" type="veh_passenger" speed="8.89" pos="0.43" lane=":4934021779_0_0" slope="0.00"/>
        <vehicle id="veh1" x="6406.28" y="9255.03" angle="19.53" type="veh_passenger" speed="25.00" pos="80.87" lane="127568952#0_0" slope="0.00"/>
    </timestep>
    <timestep time="8.00">
        <vehicle id="veh0" x="7774.14" y="9558.10" angle="262.05" type="veh_passenger" speed="5.16" pos="0.85" lane="23491047#5_0" slope="0.00"/>
        <vehicle id="veh1" x="6414.93" y="9279.43" angle="19.53" type="veh_passenger" speed="25.89" pos="106.76" lane="127568952#0_0" slope="0.00"/>
        <vehicle id="veh2" x="5847.00" y="9476.82" angle="267.74" type="veh_passenger" speed="0.00" pos="5.10" lane="4898221#2_0" slope="0.00"/>
    </timestep>
    <timestep time="9.00">
        <vehicle id="veh0" x="7768.33" y="9553.68" angle="229.52" type="veh_passenger" speed="7.37" pos="6.34" lane=":254386853_1_0" slope="0.00"/>
        <vehicle id="veh1" x="6423.26" y="9302.90" angle="19.53" type="veh_passenger" speed="24.91" pos="131.67" lane="127568952#0_0" slope="0.00"/>
        <vehicle id="veh2" x="5845.71" y="9476.77" angle="267.74" type="veh_passenger" speed="1.30" pos="6.40" lane="4898221#2_0" slope="0.00"/>
    </timestep>
    <timestep time="10.00">
        <vehicle id="veh0" x="7767.90" y="9545.89" angle="171.53" type="veh_passenger" speed="8.14" pos="2.63" lane="-23491046#1_0" slope="0.00"/>
        <vehicle id="veh1" x="6431.69" y="9326.68" angle="19.53" type="veh_passenger" speed="25.23" pos="156.90" lane="127568952#0_0" slope="0.00"/>
        <vehicle id="veh2" x="5842.78" y="9476.65" angle="267.74" type="veh_passenger" speed="2.96" pos="9.37" lane="4898221#2_0" slope="0.00"/>
    </timestep>
    <timestep time="11.00">
        <vehicle id="veh0" x="7767.62" y="9535.21" angle="183.08" type="veh_passenger" speed="10.69" pos="13.32" lane="-23491046#1_0" slope="0.00"/>
        <vehicle id="veh1" x="6440.01" y="9350.14" angle="19.53" type="veh_passenger" speed="24.90" pos="181.80" lane="127568952#0_0" slope="0.00"/>
        <vehicle id="veh2" x="5837.90" y="9476.46" angle="267.74" type="veh_passenger" speed="4.93" pos="14.30" lane="4898221#2_0" slope="0.00"/>
    </timestep>
    <timestep time="12.00">
        <vehicle id="veh0" x="7766.93" y="9522.33" angle="183.08" type="veh_passenger" speed="12.90" pos="26.22" lane="-23491046#1_0" slope="0.00"/>
        <vehicle id="veh1" x="6448.42" y="9374.12" angle="19.38" type="veh_passenger" speed="25.39" pos="5.10" lane="127568952#2_0" slope="0.00"/>
        <vehicle id="veh2" x="5831.13" y="9476.19" angle="267.74" type="veh_passenger" speed="6.84" pos="21.14" lane="4898221#2_0" slope="0.00"/>
        <vehicle id="veh3" x="6418.58" y="9375.17" angle="300.48" type="veh_passenger" speed="0.00" pos="5.10" lane="5365371#1_0" slope="0.00"/>
    </timestep>
    <timestep time="13.00">
        <vehicle id="veh0" x="7766.15" y="9507.82" angle="183.08" type="veh_passenger" speed="14.54" pos="40.76" lane="-23491046#1_0" slope="0.00"/>
        <vehicle id="veh1" x="6456.94" y="9398.33" angle="19.38" type="veh_passenger" speed="25.67" pos="30.77" lane="127568952#2_0" slope="0.00"/>
        <vehicle id="veh2" x="5821.92" y="9475.83" angle="267.74" type="veh_passenger" speed="9.31" pos="30.44" lane="4898221#2_0" slope="0.00"/>
        <vehicle id="veh3" x="6416.42" y="9376.44" angle="300.48" type="veh_passenger" speed="2.51" pos="7.61" lane="5365371#1_0" slope="0.00"/>
    </timestep>
    <timestep time="14.00">
        <vehicle id="veh0" x="7765.38" y="9493.56" angle="183.08" type="veh_passenger" speed="14.28" pos="55.04" lane="-23491046#1_0" slope="0.00"/>
        <vehicle id="veh1" x="6465.43" y="9422.34" angle="19.70" type="veh_passenger" speed="25.48" pos="7.37" lane=":316120139_4_0" slope="0.00"/>
        <vehicle id="veh2" x="5811.18" y="9475.86" angle="270.40" type="veh_passenger" speed="10.85" pos="41.29" lane="4898221#2_0" slope="0.00"/>
        <vehicle id="veh3" x="6412.44" y="9378.78" angle="300.48" type="veh_passenger" speed="4.62" pos="12.23" lane="5365371#1_0" slope="0.00"/>
    </timestep>
    <timestep time="15.00">
        <vehicle id="veh0" x="7764.57" y="9479.54" angle="183.73" type="veh_passenger" speed="14.04" pos="69.08" lane="-23491046#1_0" slope="0.00"/>
        <vehicle id="veh1" x="6473.92" y="9445.70" angle="19.99" type="veh_passenger" speed="24.85" pos="22.92" lane="127568952#3_0" slope="0.00"/>
        <vehicle id="veh2" x="5798.23" y="9475.88" angle="270.07" type="veh_passenger" speed="13.07" pos="54.36" lane="4898221#2_0" slope="0.00"/>
        <vehicle id="veh3" x="6407.30" y="9381.81" angle="300.48" type="veh_passenger" speed="5.96" pos="18.19" lane="5365371#1_0" slope="0.00"/>
    </timestep>
    <timestep time="16.00">
        <vehicle id="veh0" x="7762.67" y="9465.75" angle="189.80" type="veh_passenger" speed="13.93" pos="83.01" lane="-23491046#1_0" slope="0.00"/>
        <vehicle id="veh1" x="6481.35" y="9466.14" angle="19.99" type="veh_passenger" speed="21.75" pos="44.67" lane="127568952#3_0" slope="0.00"/>
        <vehicle id="veh2" x="5785.34" y="9476.71" angle="275.16" type="veh_passenger" speed="13.05" pos="67.42" lane="4898221#2_0" slope="0.00"/>
        <vehicle id="veh3" x="6400.76" y="9385.66" angle="300.48" type="veh_passenger" speed="7.59" pos="25.78" lane="5365371#1_0" slope="0.00"/>
    </timestep>
    <timestep time="17.00">
        <vehicle id="veh0" x="7760.03" y="9452.10" angle="190.94" type="veh_passenger" speed="13.90" pos="96.91" lane="-23491046#1_0" slope="0.00"/>
        <vehicle id="veh1" x="6486.86" y="9482.61" angle="18.36" type="veh_passenger" speed="17.40" pos="15.92" lane=":cluster_35207198_3893666223_3893666230_3893666231_5_0" slope="0.00"/>
        <vehicle id="veh2" x="5771.80" y="9477.93" angle="275.16" type="veh_passenger" speed="13.72" pos="81.14" lane="4898221#2_0" slope="0.00"/>
        <vehicle id="veh3" x="6393.04" y="9390.20" angle="300.48" type="veh_passenger" speed="8.96" pos="34.74" lane="5365371#1_0" slope="0.00"/>
    </timestep>
    <timestep time="18.00">
        <vehicle id="veh0" x="7757.09" y="9438.79" angle="192.58" type="veh_passenger" speed="13.63" pos="110.54" lane="-23491046#1_0" slope="0.00"/>
        <vehicle id="veh1" x="6491.10" y="9494.74" angle="20.65" type="veh_passenger" speed="12.90" pos="2.85" lane="24543647#1_0" slope="0.00"/>
        <vehicle id="veh2" x="5758.81" y="9479.11" angle="275.16" type="veh_passenger" speed="13.17" pos="94.30" lane="4898221#2_0" slope="0.00"/>
        <vehicle id="veh3" x="6383.50" y="9395.81" angle="300.48" type="veh_passenger" speed="11.06" pos="45.81" lane="5365371#1_0" slope="0.00"/>
    </timestep>
    <timestep time="19.00">
        <vehicle id="veh0" x="7753.98" y="9424.87" angle="192.58" type="veh_passenger" speed="14.27" pos="124.81" lane="-23491046#1_0" slope="0.00"/>
        <vehicle id="veh1" x="6496.19" y="9505.93" angle="27.40" type="veh_passenger" speed="12.39" pos="15.24" lane="24543647#1_0" slope="0.00"/>
        <vehicle id="veh2" x="5749.62" y="9479.34" angle="268.63" type="veh_passenger" speed="9.02" pos="2.71" lane="4898218#0_0" slope="0.00"/>
        <vehicle id="veh3" x="6372.13" y="9402.51" angle="300.48" type="veh_passenger" speed="13.19" pos="59.00" lane="5365371#1_0" slope="0.00"/>
    </timestep>
    <timestep time="20.00">
        <vehicle id="veh0" x="7750.93" y="9411.21" angle="192.58" type="veh_passenger" speed="13.99" pos="138.80" lane="-23491046#1_0" slope="0.00"/>
        <vehicle id="veh1" x="6502.47" y="9517.14" angle="31.99" type="veh_passenger" speed="12.92" pos="5.39" lane=":266864103_0_0" slope="0.00"/>
        <vehicle id="veh2" x="5744.99" y="9480.57" angle="284.73" type="veh_passenger" speed="4.96" pos="4.94" lane=":31917362_0_0" slope="0.00"/>
        <vehicle id="veh3" x="6360.26" y="9409.49" angle="300.48" type="veh_passenger" speed="13.78" pos="72.78" lane="5365371#1_0" slope="0.00"/>
        <vehicle id="veh5" x="7115.71" y="10345.40" angle="169.38" type="veh_passenger" speed="0.00" pos="5.10" lane="-888004890#0_0" slope="0.00"/>
    </timestep>
    <timestep time="21.00">
        <vehicle id="veh0" x="7748.31" y="9399.47" angle="192.58" type="veh_passenger" speed="12.03" pos="150.83" lane="-23491046#1_0" slope="0.00"/>
        <vehicle id="veh1" x="6511.98" y="9529.30" angle="37.20" type="veh_passenger" speed="15.44" pos="8.72" lane="24543642_0" slope="0.00"/>
        <vehicle id="veh2" x="5743.28" y="9486.16" angle="347.80" type="veh_passenger" speed="5.98" pos="3.12" lane=":1306452188_4_0" slope="0.00"/>
        <vehicle id="veh3" x="6351.11" y="9414.88" angle="300.48" type="veh_passenger" speed="10.61" pos="83.39" lane="5365371#1_0" slope="0.00"/>
        <vehicle id="veh5" x="7116.04" y="10343.64" angle="169.38" type="veh_passenger" speed="1.79" pos="6.89" lane="-888004890#0_0" slope="0.00"/>
    </timestep>
    <timestep time="22.00">
        <vehicle id="veh0" x="7746.58" y="9391.75" angle="192.66" type="veh_passenger" speed="7.92" pos="3.73" lane=":3073416576_0_0" slope="0.00"/>
        <vehicle id="veh1" x="6522.62" y="9543.31" angle="37.20" type="veh_passenger" speed="17.59" pos="26.31" lane="24543642_0" slope="0.00"/>
        <vehicle id="veh2" x="5743.00" y="9494.64" angle="2.94" type="veh_passenger" speed="8.53" pos="2.68" lane="23444831#1_0" slope="0.00"/>
        <vehicle id="veh3" x="6345.15" y="9418.38" angle="300.48" type="veh_passenger" speed="6.91" pos="90.30" lane="5365371#1_0" slope="0.00"/>
        <vehicle id="veh5" x="7116.76" y="10339.81" angle="169.38" type="veh_passenger" speed="3.90" pos="10.78" lane="-888004890#0_0" slope="0.00"/>
    </timestep>
    <timestep time="23.00">
        <vehicle id="veh0" x="7745.77" y="9388.19" angle="192.82" type="veh_passenger" speed="3.65" pos="2.32" lane="-23491046#0_0" slope="0.00"/>
        <vehicle id="veh1" x="6531.54" y="9560.11" angle="24.26" type="veh_passenger" speed="19.12" pos="45.43" lane="24543642_0" slope="0.00"/>
        <vehicle id="veh2" x="5743.82" y="9505.13" angle="4.59" type="veh_passenger" speed="10.51" pos="2.81" lane=":573211457_0_0" slope="0.00"/>
        <vehicle id="veh3" x="6341.99" y="9418.28" angle="278.13" type="veh_passenger" speed="3.56" pos="0.10" lane=":cluster_319432504_6812846014_9_0" slope="0.00"/>
        <vehicle id="veh5" x="7117.74" y="10334.58" angle="169.38" type="veh_passenger" speed="5.32" pos="16.11" lane="-888004890#0_0" slope="0.00"/>
    </timestep>
    <timestep time="24.00">
        <vehicle id="veh0" x="7742.93" y="9383.13" angle="212.71" type="veh_passenger" speed="6.01" pos="4.82" lane=":32627328_0_0" slope="0.00"/>
        <vehicle id="veh1" x="6539.23" y="9578.25" angle="19.14" type="veh_passenger" speed="19.72" pos="65.15" lane="24543642_0" slope="0.00"/>
        <vehicle id="veh2" x="5744.85" y="9516.98" angle="5.21" type="veh_passenger" speed="11.91" pos="5.34" lane="23444831#2_0" slope="0.00"/>
        <vehicle id="veh3" x="6344.03" y="9415.32" angle="160.93" type="veh_passenger" speed="3.95" pos="1.71" lane="-5365371#1_0" slope="0.00"/>
        <vehicle id="veh5" x="7119.09" y="10327.34" angle="169.38" type="veh_passenger" speed="7.36" pos="23.47" lane="-888004890#0_0" slope="0.00"/>
        <vehicle id="veh6" x="6228.88" y="9625.00" angle="338.39" type="veh_passenger" speed="0.00" pos="5.10" lane="-180403425#0_0" slope="0.00"/>
    </timestep>
    <timestep time="25.00">
        <vehicle id="veh0" x="7736.37" y="9383.30" angle="278.24" type="veh_passenger" speed="6.71" pos="2.48" lane="-203484458#2_0" slope="0.00"/>
        <vehicle id="veh1" x="6545.80" y="9597.71" angle="18.67" type="veh_passenger" speed="20.54" pos="85.69" lane="24543642_0" slope="0.00"/>
        <vehicle id="veh2" x="5746.12" y="9530.90" angle="5.21" type="veh_passenger" speed="13.98" pos="19.31" lane="23444831#2_0" slope="0.00"/>
        <vehicle id="veh3" x="6348.75" y="9412.55" angle="120.48" type="veh_passenger" speed="5.47" pos="7.18" lane="-5365371#1_0" slope="0.00"/>
        <vehicle id="veh5" x="7121.26" y="10318.82" angle="163.25" type="veh_passenger" speed="8.81" pos="5.24" lane=":cluster_266864388_266864398_4326201049_4326201050_4326201051_4891608064_8256095143_21_0" slope="0.00"/>
        <vehicle id="veh6" x="6228.25" y="9626.61" angle="338.39" type="veh_passenger" speed="1.73" pos="6.83" lane="-180403425#0_0" slope="0.00"/>
    </timestep>
    <timestep time="26.00">
        <vehicle id="veh0" x="7727.98" y="9385.17" angle="282.57" type="veh_passenger" speed="8.60" pos="11.08" lane="-203484458#2_0" slope="0.00"/>
        <vehicle id="veh1" x="6552.66" y="9616.79" angle="21.95" type="veh_passenger" speed="20.28" pos="105.97" lane="24543642_0" slope="0.00"/>
        <vehicle id="veh2" x="5747.14" y="9544.73" angle="2.47" type="veh_passenger" speed="13.86" pos="4.36" lane=":2990551699_0_0" slope="0.00"/>
        <vehicle id="veh3" x="6355.23" y="9408.73" angle="120.48" type="veh_passenger" speed="7.52" pos="14.70" lane="-5365371#1_0" slope="0.00"/>
        <vehicle id="veh5" x="7125.08" y="10308.56" angle="159.69" type="veh_passenger" speed="10.95" pos="16.19" lane=":cluster_266864388_266864398_4326201049_4326201050_4326201051_4891608064_8256095143_21_0" slope="0.00"/>
        <vehicle id="veh6" x="6226.95" y="9629.88" angle="338.39" type="veh_passenger" speed="3.52" pos="10.35" lane="-180403425#0_0" slope="0.00"/>
    </timestep>
    <timestep time="27.00">
        <vehicle id="veh0" x="7717.56" y="9387.49" angle="282.57" type="veh_passenger" speed="10.67" pos="21.75" lane="-203484458#2_0" slope="0.00"/>
        <vehicle id="veh1" x="6561.29" y="9635.43" angle="28.31" type="veh_passenger" speed="20.57" pos="126.54" lane="24543642_0" slope="0.00"/>
        <vehicle id="veh2" x="5749.18" y="9556.92" angle="19.56" type="veh_passenger" speed="12.76" pos="2.47" lane=":453007393_1_0" slope="0.00"/>
        <vehicle id="veh3" x="6363.40" y="9403.92" angle="120.48" type="veh_passenger" speed="9.48" pos="24.19" lane="-5365371#1_0" slope="0.00"/>
        <vehicle id="veh5" x="7127.89" y="10296.56" angle="171.31" type="veh_passenger" speed="12.36" pos="5.54" lane="-24543667#1_0" slope="0.00"/>
        <vehicle id="veh6" x="6225.03" y="9634.72" angle="338.39" type="veh_passenger" speed="5.21" pos="15.55" lane="-180403425#0_0" slope="0.00"/>
        <vehicle id="veh7" x="6053.82" y="9751.17" angle="172.72" type="veh_passenger" speed="0.00" pos="5.10" lane="303249197#6_0" slope="0.00"/>
    </timestep>
    <timestep time="28.00">
        <vehicle id="veh0" x="7705.69" y="9390.19" angle="282.93" type="veh_passenger" speed="12.18" pos="7.78" lane=":1998709012_4_0" slope="0.00"/>
        <vehicle id="veh1" x="6571.29" y="9652.73" angle="35.20" type="veh_passenger" speed="20.03" pos="146.57" lane="24543642_0" slope="0.00"/>
        <vehicle id="veh2" x="5749.80" y="9570.88" angle="1.42" type="veh_passenger" speed="14.02" pos="0.76" lane="38351060#1_0" slope="0.00"/>
        <vehicle id="veh3" x="6373.34" y="9398.08" angle="120.48" type="veh_passenger" speed="11.52" pos="35.71" lane="-5365371#1_0" slope="0.00"/>
        <vehicle id="veh5" x="7129.29" y="10282.94" angle="176.62" type="veh_passenger" speed="13.70" pos="19.24" lane="-24543667#1_0" slope="0.00"/>
        <vehicle id="veh6" x="6222.28" y="9641.67" angle="338.39" type="veh_passenger" speed="7.47" pos="23.03" lane="-180403425#0_0" slope="0.00"/>
        <vehicle id="veh7" x="6054.50" y="9748.84" angle="168.51" type="veh_passenger" speed="2.34" pos="7.44" lane="303249197#6_0" slope="0.00"/>
    </timestep>
    <timestep time="29.00">
        <vehicle id="veh0" x="7692.53" y="9393.29" angle="283.25" type="veh_passenger" speed="13.52" pos="1.48" lane=":3073416577_0_0" slope="0.00"/>
        <vehicle id="veh1" x="6584.25" y="9668.09" angle="45.65" type="veh_passenger" speed="20.15" pos="166.72" lane="24543642_0" slope="0.00"/>
        <vehicle id="veh2" x="5750.08" y="9583.97" angle="0.48" type="veh_passenger" speed="13.10" pos="3.27" lane=":2779669681_0_0" slope="0.00"/>
        <vehicle id="veh3" x="6384.73" y="9391.37" angle="120.48" type="veh_passenger" speed="13.22" pos="48.93" lane="-5365371#1_0" slope="0.00"/>
        <vehicle id="veh5" x="7130.06" y="10269.82" angle="176.62" type="veh_passenger" speed="13.15" pos="32.39" lane="-24543667#1_0" slope="0.00"/>
        <vehicle id="veh6" x="6219.54" y="9650.16" angle="345.09" type="veh_passenger" speed="8.96" pos="31.98" lane="-180403425#0_0" slope="0.00"/>
        <vehicle id="veh7" x="6056.25" y="9745.27" angle="154.25" type="veh_passenger" speed="3.78" pos="11.22" lane="303249197#6_0" slope="0.00"/>
    </timestep>
    <timestep time="30.00">
        <vehicle id="veh0" x="7677.59" y="9396.67" angle="282.51" type="veh_passenger" speed="15.31" pos="7.32" lane="-203484458#0_0" slope="0.00"/>
        <vehicle id="veh1" x="6598.99" y="9681.30" angle="55.52" type="veh_passenger" speed="19.84" pos="186.56" lane="24543642_0" slope="0.00"/>
        <vehicle id="veh2" x="5754.03" y="9595.79" angle="45.74" type="veh_passenger" speed="13.52" pos="11.29" lane="38351060#3_0" slope="0.00"/>
        <vehicle id="veh3" x="6397.40" y="9383.92" angle="120.48" type="veh_passenger" speed="14.70" pos="63.63" lane="-5365371#1_0" slope="0.00"/>
        <vehicle id="veh5" x="7130.39" y="10255.68" angle="179.34" type="veh_passenger" speed="14.14" pos="46.53" lane="-24543667#1_0" slope="0.00"/>
        <vehicle id="veh6" x="6217.43" y="9661.12" angle="349.11" type="veh_passenger" speed="11.16" pos="43.14" lane="-180403425#0_0" slope="0.00"/>
        <vehicle id="veh7" x="6060.14" y="9740.01" angle="142.37" type="veh_passenger" speed="6.23" pos="17.45" lane="303249197#6_0" slope="0.00"/>
    </timestep>
    <timestep time="31.00">
        <vehicle id="veh0" x="7660.57" y="9400.45" angle="282.51" type="veh_passenger" speed="17.44" pos="24.75" lane="-203484458#0_0" slope="0.00"/>
        <vehicle id="veh1" x="6615.50" y="9692.06" angle="60.16" type="veh_passenger" speed="19.74" pos="206.30" lane="24543642_0" slope="0.00"/>
        <vehicle id="veh2" x="5764.00" y="9605.50" angle="45.74" type="veh_passenger" speed="13.92" pos="25.21" lane="38351060#3_0" slope="0.00"/>
        <vehicle id="veh3" x="6407.94" y="9377.71" angle="120.48" type="veh_passenger" speed="12.24" pos="75.87" lane="-5365371#1_0" slope="0.00"/>
        <vehicle id="veh5" x="7130.45" y="10241.96" angle="180.48" type="veh_passenger" speed="13.72" pos="5.33" lane=":cluster_345519275_4891608066_4_0" slope="0.00"/>
        <vehicle id="veh6" x="6215.46" y="9671.36" angle="349.11" type="veh_passenger" speed="10.43" pos="53.57" lane="-180403425#0_0" slope="0.00"/>
        <vehicle id="veh7" x="6066.50" y="9734.60" angle="125.93" type="veh_passenger" speed="8.09" pos="6.51" lane=":32628969_1_0" slope="0.00"/>
        <vehicle id="veh8" x="5925.39" y="10160.27" angle="330.41" type="veh_passenger" speed="0.00" pos="5.10" lane="4949354#1_2" slope="0.00"/>
    </timestep>
    <timestep time="32.00">
        <vehicle id="veh0" x="7641.83" y="9404.61" angle="282.51" type="veh_passenger" speed="19.20" pos="43.96" lane="-203484458#0_0" slope="0.00"/>
        <vehicle id="veh1" x="6631.26" y="9699.32" angle="65.27" type="veh_passenger" speed="17.34" pos="223.65" lane="24543642_0" slope="0.00"/>
        <vehicle id="veh2" x="5774.01" y="9615.25" angle="45.74" type="veh_passenger" speed="13.98" pos="39.19" lane="38351060#3_0" slope="0.00"/>
        <vehicle id="veh3" x="6415.71" y="9373.14" angle="120.48" type="veh_passenger" speed="9.01" pos="84.88" lane="-5365371#1_0" slope="0.00"/>
        <vehicle id="veh5" x="7130.15" y="10228.54" angle="181.64" type="veh_passenger" speed="13.43" pos="9.21" lane="-24543667#0_0" slope="0.00"/>
        <vehicle id="veh6" x="6214.31" y="9682.43" angle="355.30" type="veh_passenger" speed="11.14" pos="64.71" lane="-180403425#0_0" slope="0.00"/>
        <vehicle id="veh7" x="6075.01" y="9731.49" angle="107.61" type="veh_passenger" speed="8.45" pos="4.47" lane="303249197#7_0" slope="0.00"/>
        <vehicle id="veh8" x="5924.52" y="10161.80" angle="330.41" type="veh_passenger" speed="1.75" pos="6.85" lane="4949354#1_2" slope="0.00"/>
    </timestep>
    <timestep time="33.00">
        <vehicle id="veh0" x="7620.84" y="9409.43" angle="283.15" type="veh_passenger" speed="21.54" pos="2.80" lane=":32627326_4_0" slope="0.00"/>
        <vehicle id="veh1" x="6642.98" y="9704.54" angle="67.07" type="veh_passenger" speed="12.84" pos="4.44" lane="5116340_0" slope="0.00"/>
        <vehicle id="veh2" x="5783.70" y="9624.69" angle="45.75" type="veh_passenger" speed="13.53" pos="0.28" lane=":2763044753_3_0" slope="0.00"/>
        <vehicle id="veh3" x="6419.60" y="9370.85" angle="120.48" type="veh_passenger" speed="4.51" pos="89.39" lane="-5365371#1_0" slope="0.00"/>
        <vehicle id="veh5" x="7129.74" y="10214.36" angle="181.64" type="veh_passenger" speed="14.19" pos="23.40" lane="-24543667#0_0" slope="0.00"/>
        <vehicle id="veh6" x="6213.37" y="9693.84" angle="355.30" type="veh_passenger" speed="11.45" pos="76.16" lane="-180403425#0_0" slope="0.00"/>
        <vehicle id="veh7" x="6079.38" y="9731.00" angle="96.83" type="veh_passenger" speed="3.95" pos="8.43" lane="303249197#7_0" slope="0.00"/>
        <vehicle id="veh8" x="5922.94" y="10165.12" angle="333.49" type="veh_passenger" speed="3.66" pos="10.51" lane="4949354#1_2" slope="0.00"/>
    </timestep>
    <timestep time="34.00">
        <vehicle id="veh0" x="7598.23" y="9414.41" angle="282.66" type="veh_passenger" speed="23.15" pos="3.01" lane=":cluster_1733661334_254386437_3073416580_0_0" slope="0.00"/>
        <vehicle id="veh1" x="6654.98" y="9709.57" angle="67.28" type="veh_passenger" speed="13.01" pos="17.45" lane="5116340_0" slope="0.00"/>
        <vehicle id="veh2" x="5793.42" y="9634.12" angle="46.00" type="veh_passenger" speed="13.55" pos="1.37" lane=":1411552545_2_0" slope="0.00"/>
        <vehicle id="veh3" x="6420.45" y="9370.35" angle="120.48" type="veh_passenger" speed="0.99" pos="90.38" lane="-5365371#1_0" slope="0.00"/>
        <vehicle id="veh5" x="7129.35" y="10200.70" angle="181.64" type="veh_passenger" speed="13.67" pos="37.07" lane="-24543667#0_0" slope="0.00"/>
        <vehicle id="veh6" x="6212.83" y="9704.56" angle="359.18" type="veh_passenger" speed="10.74" pos="86.90" lane="-180403425#0_0" slope="0.00"/>
        <vehicle id="veh7" x="6085.28" y="9731.29" angle="86.26" type="veh_passenger" speed="5.65" pos="4.36" lane=":3716671359_0_0" slope="0.00"/>
        <vehicle id="veh8" x="5920.59" y="10170.40" angle="336.00" type="veh_passenger" speed="5.75" pos="16.25" lane="4949354#1_2" slope="0.00"/>
    </timestep>
    <timestep time="35.00">
        <vehicle id="veh0" x="7576.32" y="9419.39" angle="282.05" type="veh_passenger" speed="22.47" pos="5.45" lane="-4949074#3_0" slope="0.00"/>
        <vehicle id="veh1" x="6666.29" y="9714.30" angle="67.28" type="veh_passenger" speed="12.25" pos="29.70" lane="5116340_0" slope="0.00"/>
        <vehicle id="veh2" x="5801.15" y="9641.13" angle="48.70" type="veh_passenger" speed="10.44" pos="1.31" lane="38351060#6_0" slope="0.00"/>
        <vehicle id="veh3" x="6420.48" y="9370.33" angle="120.48" type="veh_passenger" speed="0.03" pos="90.41" lane="-5365371#1_0" slope="0.00"/>
        <vehicle id="veh5" x="7128.94" y="10186.56" angle="181.64" type="veh_passenger" speed="14.14" pos="51.21" lane="-24543667#0_0" slope="0.00"/>
        <vehicle id="veh6" x="6212.85" y="9715.07" angle="0.83" type="veh_passenger" speed="10.52" pos="97.41" lane="-180403425#0_0" slope="0.00"/>
        <vehicle id="veh7" x="6089.59" y="9732.15" angle="78.38" type="veh_passenger" speed="4.20" pos="2.94" lane=":3716671360_1_0" slope="0.00"/>
        <vehicle id="veh8" x="5918.06" y="10177.32" angle="340.06" type="veh_passenger" speed="7.33" pos="23.58" lane="4949354#1_2" slope="0.00"/>
        <vehicle id="veh9" x="5922.82" y="10098.25" angle="158.82" type="veh_passenger" speed="0.00" pos="5.10" lane="4949353#1_3" slope="0.00"/>
    </timestep>
    <timestep time="36.00">
        <vehicle id="veh0" x="7554.31" y="9424.09" angle="282.05" type="veh_passenger" speed="22.50" pos="27.95" lane="-4949074#3_0" slope="0.00"/>
        <vehicle id="veh1" x="6677.94" y="9719.18" angle="67.28" type="veh_passenger" speed="12.63" pos="42.33" lane="5116340_0" slope="0.00"/>
        <vehicle id="veh2" x="5808.06" y="9640.94" angle="105.60" type="veh_passenger" speed="7.56" pos="7.04" lane=":cluster_2763044770_32592495_573211551_4_0" slope="0.00"/>
        <vehicle id="veh3" x="6420.49" y="9370.33" angle="120.48" type="veh_passenger" speed="0.01" pos="90.42" lane="-5365371#1_0" slope="0.00"/>
        <vehicle id="veh5" x="7128.56" y="10173.44" angle="181.64" type="veh_passenger" speed="13.13" pos="64.34" lane="-24543667#0_0" slope="0.00"/>
        <vehicle id="veh6" x="6213.18" y="9725.47" angle="2.42" type="veh_passenger" speed="10.40" pos="107.82" lane="-180403425#0_0" slope="0.00"/>
        <vehicle id="veh7" x="6094.83" y="9734.85" angle="61.71" type="veh_passenger" speed="5.62" pos="3.72" lane=":32628968_2_0" slope="0.00"/>
        <vehicle id="veh8" x="5915.00" y="10185.76" angle="340.06" type="veh_passenger" speed="8.92" pos="32.51" lane="4949354#1_2" slope="0.00"/>
        <vehicle id="veh9" x="5923.72" y="10095.92" angle="158.79" type="veh_passenger" speed="2.48" pos="7.58" lane="4949353#1_3" slope="0.00"/>
    </timestep>
    <timestep time="37.00">
        <vehicle id="veh0" x="7532.45" y="9428.75" angle="282.05" type="veh_passenger" speed="22.36" pos="50.31" lane="-4949074#3_0" slope="0.00"/>
        <vehicle id="veh1" x="6689.10" y="9723.85" angle="67.28" type="veh_passenger" speed="12.10" pos="54.44" lane="5116340_0" slope="0.00"/>
        <vehicle id="veh2" x="5813.97" y="9635.66" angle="135.72" type="veh_passenger" speed="7.96" pos="15.00" lane=":cluster_2763044770_32592495_573211551_4_0" slope="0.00"/>
        <vehicle id="veh3" x="6420.49" y="9370.33" angle="120.48" type="veh_passenger" speed="0.00" pos="90.42" lane="-5365371#1_0" slope="0.00"/>
        <vehicle id="veh5" x="7128.19" y="10160.23" angle="181.64" type="veh_passenger" speed="13.21" pos="77.55" lane="-24543667#0_0" slope="0.00"/>
        <vehicle id="veh6" x="6213.76" y="9736.92" angle="2.88" type="veh_passenger" speed="11.46" pos="119.28" lane="-180403425#0_0" slope="0.00"/>
        <vehicle id="veh7" x="6101.24" y="9740.11" angle="46.96" type="veh_passenger" speed="7.92" pos="1.50" lane="111275389#0_0" slope="0.00"/>
        <vehicle id="veh8" x="5911.22" y="10196.16" angle="340.06" type="veh_passenger" speed="11.01" pos="43.52" lane="4949354#1_2" slope="0.00"/>
        <vehicle id="veh9" x="5925.11" y="10092.34" angle="158.79" type="veh_passenger" speed="3.81" pos="11.39" lane="4949353#1_3" slope="0.00"/>
    </timestep>
    <timestep time="38.00">